Title: ** sch_path: /workspaces/usm-vlsi-tools/shared_xserver/parametros_vaf/vth_tets.sch
Date: Fri Aug  1 21:15:23  2025
Plotname: DC transfer characteristic
Flags: real
No. Variables: 8
No. Points: 301
Variables:
	0	v(v-sweep)	voltage
	1	@n1[gm_op]	admittance
	2	gm	admittance
	3	gm_id	notype
	4	i(v1)	current
	5	i(v2)	current
	6	v(vd)	voltage
	7	v(vg)	voltage
Values:
 0	0.000000000000000e+00
	1.065349480660828e-10
	1.065349480660828e-10
	2.852458960652283e+01
	0.000000000000000e+00
	-3.269424161536665e-12
	1.290000000000000e-02
	0.000000000000000e+00

 1	1.000000000000000e-02
	1.434340887996877e-10
	1.434340887996877e-10
	3.009209421685249e+01
	0.000000000000000e+00
	-4.397345793422890e-12
	1.290000000000000e-02
	1.000000000000000e-02

 2	2.000000000000000e-02
	1.931134750210809e-10
	1.931134750210809e-10
	3.011480981281621e+01
	0.000000000000000e+00
	-5.915931039931897e-12
	1.290000000000000e-02
	2.000000000000000e-02

 3	3.000000000000000e-02
	2.599995942037730e-10
	2.599995942037730e-10
	3.013169691322279e+01
	0.000000000000000e+00
	-7.960488556088591e-12
	1.290000000000000e-02
	3.000000000000000e-02

 4	4.000000000000000e-02
	3.500520415032483e-10
	3.500520415032483e-10
	3.014424250938808e+01
	0.000000000000000e+00
	-1.071319160899670e-11
	1.290000000000000e-02
	4.000000000000000e-02

 5	5.000000000000000e-02
	4.712944890089885e-10
	4.712944890089885e-10
	3.015355493693839e+01
	0.000000000000000e+00
	-1.441930947431135e-11
	1.290000000000000e-02
	5.000000000000000e-02

 6	6.000000000000000e-02
	6.345295369016207e-10
	6.345295369016207e-10
	3.016045830535259e+01
	0.000000000000000e+00
	-1.940906041672397e-11
	1.290000000000000e-02
	6.000000000000000e-02

 7	7.000000000000001e-02
	8.543011007745253e-10
	8.543011007745253e-10
	3.016556489943925e+01
	0.000000000000000e+00
	-2.612703262320480e-11
	1.290000000000000e-02
	7.000000000000001e-02

 8	8.000000000000000e-02
	1.150190052878304e-09
	1.150190052878304e-09
	3.016932807253342e+01
	0.000000000000000e+00
	-3.517179438122502e-11
	1.290000000000000e-02
	8.000000000000000e-02

 9	9.000000000000000e-02
	1.548558441671431e-09
	1.548558441671431e-09
	3.017208213378849e+01
	0.000000000000000e+00
	-4.734922069494210e-11
	1.290000000000000e-02
	9.000000000000000e-02

 10	9.999999999999999e-02
	2.084897549764455e-09
	2.084897549764455e-09
	3.017407207262996e+01
	0.000000000000000e+00
	-6.374428589679842e-11
	1.290000000000000e-02
	9.999999999999999e-02

 11	1.100000000000000e-01
	2.806988684726618e-09
	2.806988684726618e-09
	3.017547490065693e+01
	0.000000000000000e+00
	-8.581771423230860e-11
	1.290000000000000e-02
	1.100000000000000e-01

 12	1.200000000000000e-01
	3.779157758589310e-09
	3.779157758589310e-09
	3.017641545325615e+01
	0.000000000000000e+00
	-1.155360915337740e-10
	1.290000000000000e-02
	1.200000000000000e-01

 13	1.300000000000000e-01
	5.088001723760780e-09
	5.088001723760780e-09
	3.017697745309400e+01
	0.000000000000000e+00
	-1.555470161916804e-10
	1.290000000000000e-02
	1.300000000000000e-01

 14	1.400000000000000e-01
	6.850095214342224e-09
	6.850095214342224e-09
	3.017721094891430e+01
	0.000000000000000e+00
	-2.094148675440217e-10
	1.290000000000000e-02
	1.400000000000000e-01

 15	1.500000000000000e-01
	9.222360675797915e-09
	9.222360675797915e-09
	3.017713674997142e+01
	0.000000000000000e+00
	-2.819381488659784e-10
	1.290000000000000e-02
	1.500000000000000e-01

 16	1.600000000000000e-01
	1.241601980691497e-08
	1.241601980691497e-08
	3.017674825931373e+01
	0.000000000000000e+00
	-3.795765890112705e-10
	1.290000000000000e-02
	1.600000000000000e-01

 17	1.700000000000000e-01
	1.671535824129120e-08
	1.671535824129120e-08
	3.017601092968637e+01
	0.000000000000000e+00
	-5.110258923004205e-10
	1.290000000000000e-02
	1.700000000000000e-01

 18	1.800000000000000e-01
	2.250295519975854e-08
	2.250295519975854e-08
	3.017485919741392e+01
	0.000000000000000e+00
	-6.879910472394748e-10
	1.290000000000000e-02
	1.800000000000000e-01

 19	1.900000000000000e-01
	3.029358945545924e-08
	3.029358945545924e-08
	3.017319067122978e+01
	0.000000000000000e+00
	-9.262265518910717e-10
	1.290000000000000e-02
	1.900000000000000e-01

 20	2.000000000000000e-01
	4.077977633132697e-08
	4.077977633132697e-08
	3.017085711674238e+01
	0.000000000000000e+00
	-1.246935254338777e-09
	1.290000000000000e-02
	2.000000000000000e-01

 21	2.100000000000000e-01
	5.489287309891811e-08
	5.489287309891811e-08
	3.016765139456049e+01
	0.000000000000000e+00
	-1.678648659740753e-09
	1.290000000000000e-02
	2.100000000000000e-01

 22	2.200000000000001e-01
	7.388498026003108e-08
	7.388498026003108e-08
	3.016328929041662e+01
	0.000000000000000e+00
	-2.259753005958884e-09
	1.290000000000000e-02
	2.200000000000001e-01

 23	2.300000000000001e-01
	9.943854409723199e-08
	9.943854409723199e-08
	3.015738470971651e+01
	0.000000000000000e+00
	-3.041880332613280e-09
	1.290000000000000e-02
	2.300000000000001e-01

 24	2.400000000000001e-01
	1.338127186833292e-07
	1.338127186833292e-07
	3.014941620491822e+01
	0.000000000000000e+00
	-4.094456114589663e-09
	1.290000000000000e-02
	2.400000000000001e-01

 25	2.500000000000001e-01
	1.800382539143763e-07
	1.800382539143763e-07
	3.013868220133777e+01
	0.000000000000000e+00
	-5.510789563243999e-09
	1.290000000000000e-02
	2.500000000000001e-01

 26	2.600000000000001e-01
	2.421759837076044e-07
	2.421759837076044e-07
	3.012424151730702e+01
	0.000000000000000e+00
	-7.416214821090872e-09
	1.290000000000000e-02
	2.600000000000001e-01

 27	2.700000000000001e-01
	3.256578412153111e-07
	3.256578412153111e-07
	3.010483496436023e+01
	0.000000000000000e+00
	-9.978946491539458e-09
	1.290000000000000e-02
	2.700000000000001e-01

 28	2.800000000000001e-01
	4.377334598996894e-07
	4.377334598996894e-07
	3.007878294692556e+01
	0.000000000000000e+00
	-1.342450556601037e-08
	1.290000000000000e-02
	2.800000000000001e-01

 29	2.900000000000001e-01
	5.880491486520090e-07
	5.880491486520090e-07
	3.004385331778124e+01
	0.000000000000000e+00
	-1.805480227333588e-08
	1.290000000000000e-02
	2.900000000000001e-01

 30	3.000000000000001e-01
	7.893879131462830e-07
	7.893879131462830e-07
	2.999709364710010e+01
	0.000000000000000e+00
	-2.427322218964341e-08
	1.290000000000000e-02
	3.000000000000001e-01

 31	3.100000000000001e-01
	1.058596482347493e-06
	1.058596482347493e-06
	2.993462323643442e+01
	0.000000000000000e+00
	-3.261732465612803e-08
	1.290000000000000e-02
	3.100000000000001e-01

 32	3.200000000000001e-01
	1.417713135062284e-06
	1.417713135062284e-06
	2.985138388678538e+01
	0.000000000000000e+00
	-4.380096868087642e-08
	1.290000000000000e-02
	3.200000000000001e-01

 33	3.300000000000001e-01
	1.895280582242634e-06
	1.895280582242634e-06
	2.974085650303842e+01
	0.000000000000000e+00
	-5.876771527024598e-08
	1.290000000000000e-02
	3.300000000000001e-01

 34	3.400000000000001e-01
	2.527769492536696e-06
	2.527769492536696e-06
	2.959476574555938e+01
	0.000000000000000e+00
	-7.875701241815257e-08
	1.290000000000000e-02
	3.400000000000001e-01

 35	3.500000000000001e-01
	3.360935435466923e-06
	3.360935435466923e-06
	2.940282016066240e+01
	0.000000000000000e+00
	-1.053836219369526e-07
	1.290000000000000e-02
	3.500000000000001e-01

 36	3.600000000000002e-01
	4.450771111714361e-06
	4.450771111714361e-06
	2.915257250239279e+01
	0.000000000000000e+00
	-1.407285260919815e-07
	1.290000000000000e-02
	3.600000000000002e-01

 37	3.700000000000002e-01
	5.863496083955624e-06
	5.863496083955624e-06
	2.882953184063271e+01
	0.000000000000000e+00
	-1.874355931379810e-07
	1.290000000000000e-02
	3.700000000000002e-01

 38	3.800000000000002e-01
	7.673785009535755e-06
	7.673785009535755e-06
	2.841770284778899e+01
	0.000000000000000e+00
	-2.488021341007689e-07
	1.290000000000000e-02
	3.800000000000002e-01

 39	3.900000000000002e-01
	9.960283172605804e-06
	9.960283172605804e-06
	2.790073893665249e+01
	0.000000000000000e+00
	-3.288432954334093e-07
	1.290000000000000e-02
	3.900000000000002e-01

 40	4.000000000000002e-01
	1.279760411984934e-05
	1.279760411984934e-05
	2.726382811846986e+01
	0.000000000000000e+00
	-4.323015528398877e-07
	1.290000000000000e-02
	4.000000000000002e-01

 41	4.100000000000002e-01
	1.624471521767820e-05
	1.624471521767820e-05
	2.649623825439703e+01
	0.000000000000000e+00
	-5.645672000728945e-07
	1.290000000000000e-02
	4.100000000000002e-01

 42	4.200000000000002e-01
	2.033103551346138e-05
	2.033103551346138e-05
	2.559413392227092e+01
	0.000000000000000e+00
	-7.314796937148740e-07
	1.290000000000000e-02
	4.200000000000002e-01

 43	4.300000000000002e-01
	2.504339863808645e-05
	2.504339863808645e-05
	2.456294493570067e+01
	0.000000000000000e+00
	-9.389989849200957e-07
	1.290000000000000e-02
	4.300000000000002e-01

 44	4.400000000000002e-01
	3.031832720801842e-05
	3.031832720801842e-05
	2.341842396127555e+01
	0.000000000000000e+00
	-1.192771300940297e-06
	1.290000000000000e-02
	4.400000000000002e-01

 45	4.500000000000002e-01
	3.604358062902885e-05
	3.604358062902885e-05
	2.218577123559172e+01
	0.000000000000000e+00
	-1.497655465205339e-06
	1.290000000000000e-02
	4.500000000000002e-01

 46	4.600000000000002e-01
	4.207015564639213e-05
	4.207015564639213e-05
	2.089682051496762e+01
	0.000000000000000e+00
	-1.857304131755889e-06
	1.290000000000000e-02
	4.600000000000002e-01

 47	4.700000000000003e-01
	4.823193863089739e-05
	4.823193863089739e-05
	1.958598796883197e+01
	0.000000000000000e+00
	-2.273890486865552e-06
	1.290000000000000e-02
	4.700000000000003e-01

 48	4.800000000000003e-01
	5.436730480497221e-05
	5.436730480497221e-05
	1.828609530975256e+01
	0.000000000000000e+00
	-2.748031966119688e-06
	1.290000000000000e-02
	4.800000000000003e-01

 49	4.900000000000003e-01
	6.033682151871172e-05
	6.033682151871172e-05
	1.702508777525411e+01
	0.000000000000000e+00
	-3.278905975799780e-06
	1.290000000000000e-02
	4.900000000000003e-01

 50	5.000000000000002e-01
	6.603359108945703e-05
	6.603359108945703e-05
	1.582419488833512e+01
	0.000000000000000e+00
	-3.864505207015689e-06
	1.290000000000000e-02
	5.000000000000002e-01

 51	5.100000000000002e-01
	7.138591766447141e-05
	7.138591766447141e-05
	1.469753208458297e+01
	0.000000000000000e+00
	-4.501959646655818e-06
	1.290000000000000e-02
	5.100000000000002e-01

 52	5.200000000000002e-01
	7.635421991383971e-05
	7.635421991383971e-05
	1.365276866350012e+01
	0.000000000000000e+00
	-5.187859134020125e-06
	1.290000000000000e-02
	5.200000000000002e-01

 53	5.300000000000002e-01
	8.092484617671614e-05
	8.092484617671614e-05
	1.269237027655068e+01
	0.000000000000000e+00
	-5.918532458967878e-06
	1.290000000000000e-02
	5.300000000000002e-01

 54	5.400000000000003e-01
	8.510305846207202e-05
	8.510305846207202e-05
	1.181499613289417e+01
	0.000000000000000e+00
	-6.690263243280218e-06
	1.290000000000000e-02
	5.400000000000003e-01

 55	5.500000000000003e-01
	8.890661639082291e-05
	8.890661639082291e-05
	1.101678080328301e+01
	0.000000000000000e+00
	-7.499441145915872e-06
	1.290000000000000e-02
	5.500000000000003e-01

 56	5.600000000000003e-01
	9.236060871267739e-05
	9.236060871267739e-05
	1.029237395847802e+01
	0.000000000000000e+00
	-8.342657228313751e-06
	1.290000000000000e-02
	5.600000000000003e-01

 57	5.700000000000003e-01
	9.549364951663349e-05
	9.549364951663349e-05
	9.635711690592988e+00
	0.000000000000000e+00
	-9.216756105939970e-06
	1.290000000000000e-02
	5.700000000000003e-01

 58	5.800000000000003e-01
	9.833527982691145e-05
	9.833527982691145e-05
	9.040547575454516e+00
	0.000000000000000e+00
	-1.011885731950076e-05
	1.290000000000000e-02
	5.800000000000003e-01

 59	5.900000000000003e-01
	1.009143166480320e-04
	1.009143166480320e-04
	8.500792583571673e+00
	0.000000000000000e+00
	-1.104635632606363e-05
	1.290000000000000e-02
	5.900000000000003e-01

 60	6.000000000000003e-01
	1.032578911407458e-04
	1.032578911407458e-04
	8.010714456562178e+00
	0.000000000000000e+00
	-1.199691299814259e-05
	1.290000000000000e-02
	6.000000000000003e-01

 61	6.100000000000003e-01
	1.053909592275949e-04
	1.053909592275949e-04
	7.565039833211999e+00
	0.000000000000000e+00
	-1.296843321383042e-05
	1.290000000000000e-02
	6.100000000000003e-01

 62	6.200000000000003e-01
	1.073361196583228e-04
	1.073361196583228e-04
	7.158992561421964e+00
	0.000000000000000e+00
	-1.395904727488212e-05
	1.290000000000000e-02
	6.200000000000003e-01

 63	6.300000000000003e-01
	1.091136216601728e-04
	1.091136216601728e-04
	6.788292368142362e+00
	0.000000000000000e+00
	-1.496708752593880e-05
	1.290000000000000e-02
	6.300000000000003e-01

 64	6.400000000000003e-01
	1.107414818008538e-04
	1.107414818008538e-04
	6.449130528177824e+00
	0.000000000000000e+00
	-1.599106659539511e-05
	1.290000000000000e-02
	6.400000000000003e-01

 65	6.500000000000004e-01
	1.122356573643115e-04
	1.122356573643115e-04
	6.138133532105866e+00
	0.000000000000000e+00
	-1.702965704110854e-05
	1.290000000000000e-02
	6.500000000000004e-01

 66	6.600000000000004e-01
	1.136102429604870e-04
	1.136102429604870e-04
	5.852321749091046e+00
	0.000000000000000e+00
	-1.808167277388093e-05
	1.290000000000000e-02
	6.600000000000004e-01

 67	6.700000000000004e-01
	1.148776702300650e-04
	1.148776702300650e-04
	5.589067346045258e+00
	0.000000000000000e+00
	-1.914605237779916e-05
	1.290000000000000e-02
	6.700000000000004e-01

 68	6.800000000000004e-01
	1.160488991339715e-04
	1.160488991339715e-04
	5.346053915300652e+00
	0.000000000000000e+00
	-2.022184429688952e-05
	1.290000000000000e-02
	6.800000000000004e-01

 69	6.900000000000004e-01
	1.171335948298996e-04
	1.171335948298996e-04
	5.121239099568757e+00
	0.000000000000000e+00
	-2.130819377535889e-05
	1.290000000000000e-02
	6.900000000000004e-01

 70	7.000000000000004e-01
	1.181402875583748e-04
	1.181402875583748e-04
	4.912820776888763e+00
	0.000000000000000e+00
	-2.240433139896064e-05
	1.290000000000000e-02
	7.000000000000004e-01

 71	7.100000000000004e-01
	1.190765150081010e-04
	1.190765150081010e-04
	4.719206931186195e+00
	0.000000000000000e+00
	-2.350956307114119e-05
	1.290000000000000e-02
	7.100000000000004e-01

 72	7.200000000000004e-01
	1.199489477949473e-04
	1.199489477949473e-04
	4.538989083843886e+00
	0.000000000000000e+00
	-2.462326125885041e-05
	1.290000000000000e-02
	7.200000000000004e-01

 73	7.300000000000004e-01
	1.207634992979448e-04
	1.207634992979448e-04
	4.370919029691430e+00
	0.000000000000000e+00
	-2.574485735239236e-05
	1.290000000000000e-02
	7.300000000000004e-01

 74	7.400000000000004e-01
	1.215254213634623e-04
	1.215254213634623e-04
	4.213888561818639e+00
	0.000000000000000e+00
	-2.687383499721567e-05
	1.290000000000000e-02
	7.400000000000004e-01

 75	7.500000000000004e-01
	1.222393874534636e-04
	1.222393874534636e-04
	4.066911854237657e+00
	0.000000000000000e+00
	-2.800972427053173e-05
	1.290000000000000e-02
	7.500000000000004e-01

 76	7.600000000000005e-01
	1.229095647633682e-04
	1.229095647633682e-04
	3.929110180953776e+00
	0.000000000000000e+00
	-2.915209659061075e-05
	1.290000000000000e-02
	7.600000000000005e-01

 77	7.700000000000005e-01
	1.235396767242748e-04
	1.235396767242748e-04
	3.799698672697128e+00
	0.000000000000000e+00
	-3.030056026073807e-05
	1.290000000000000e-02
	7.700000000000005e-01

 78	7.800000000000005e-01
	1.241330571666942e-04
	1.241330571666942e-04
	3.677974841220456e+00
	0.000000000000000e+00
	-3.145475656270487e-05
	1.290000000000000e-02
	7.800000000000005e-01

 79	7.900000000000005e-01
	1.246926972783411e-04
	1.246926972783411e-04
	3.563308631402041e+00
	0.000000000000000e+00
	-3.261435632622492e-05
	1.290000000000000e-02
	7.900000000000005e-01

 80	8.000000000000005e-01
	1.252212863481439e-04
	1.252212863481439e-04
	3.455133790939696e+00
	0.000000000000000e+00
	-3.377905691080205e-05
	1.290000000000000e-02
	8.000000000000005e-01

 81	8.100000000000005e-01
	1.257212471584082e-04
	1.257212471584082e-04
	3.352940374922015e+00
	0.000000000000000e+00
	-3.494857954539666e-05
	1.290000000000000e-02
	8.100000000000005e-01

 82	8.200000000000005e-01
	1.261947667696049e-04
	1.261947667696049e-04
	3.256268227396178e+00
	0.000000000000000e+00
	-3.612266697888073e-05
	1.290000000000000e-02
	8.200000000000005e-01

 83	8.300000000000005e-01
	1.266438233382917e-04
	1.266438233382917e-04
	3.164701304060793e+00
	0.000000000000000e+00
	-3.730108140083951e-05
	1.290000000000000e-02
	8.300000000000005e-01

 84	8.400000000000005e-01
	1.270702095177891e-04
	1.270702095177891e-04
	3.077862719479006e+00
	0.000000000000000e+00
	-3.848360259792303e-05
	1.290000000000000e-02
	8.400000000000005e-01

 85	8.500000000000005e-01
	1.274755529125818e-04
	1.274755529125818e-04
	2.995410418874563e+00
	0.000000000000000e+00
	-3.967002631578737e-05
	1.290000000000000e-02
	8.500000000000005e-01

 86	8.600000000000005e-01
	1.278613339896165e-04
	1.278613339896165e-04
	2.917033388961928e+00
	0.000000000000000e+00
	-4.086016280078978e-05
	1.290000000000000e-02
	8.600000000000005e-01

 87	8.700000000000006e-01
	1.282289017916748e-04
	1.282289017916748e-04
	2.842448334576015e+00
	0.000000000000000e+00
	-4.205383549915385e-05
	1.290000000000000e-02
	8.700000000000006e-01

 88	8.800000000000006e-01
	1.285794877483162e-04
	1.285794877483162e-04
	2.771396758389906e+00
	0.000000000000000e+00
	-4.325087989433186e-05
	1.290000000000000e-02
	8.800000000000006e-01

 89	8.900000000000006e-01
	1.289142178375954e-04
	1.289142178375954e-04
	2.703642390016528e+00
	0.000000000000000e+00
	-4.445114246588710e-05
	1.290000000000000e-02
	8.900000000000006e-01

 90	9.000000000000006e-01
	1.292341233157079e-04
	1.292341233157079e-04
	2.638968918419923e+00
	0.000000000000000e+00
	-4.565447975544058e-05
	1.290000000000000e-02
	9.000000000000006e-01

 91	9.100000000000006e-01
	1.295401502009468e-04
	1.295401502009468e-04
	2.577177988103711e+00
	0.000000000000000e+00
	-4.686075752711189e-05
	1.290000000000000e-02
	9.100000000000006e-01

 92	9.200000000000006e-01
	1.298331676722235e-04
	1.298331676722235e-04
	2.518087425098056e+00
	0.000000000000000e+00
	-4.806985001153534e-05
	1.290000000000000e-02
	9.200000000000006e-01

 93	9.300000000000006e-01
	1.301139755200980e-04
	1.301139755200980e-04
	2.461529663490414e+00
	0.000000000000000e+00
	-4.928163922391983e-05
	1.290000000000000e-02
	9.300000000000006e-01

 94	9.400000000000006e-01
	1.303833107692439e-04
	1.303833107692439e-04
	2.407350347290368e+00
	0.000000000000000e+00
	-5.049601434783757e-05
	1.290000000000000e-02
	9.400000000000006e-01

 95	9.500000000000006e-01
	1.306418535750234e-04
	1.306418535750234e-04
	2.355407085862887e+00
	0.000000000000000e+00
	-5.171287117746075e-05
	1.290000000000000e-02
	9.500000000000006e-01

 96	9.600000000000006e-01
	1.308902324830143e-04
	1.308902324830143e-04
	2.305568344110823e+00
	0.000000000000000e+00
	-5.293211161187169e-05
	1.290000000000000e-02
	9.600000000000006e-01

 97	9.700000000000006e-01
	1.311290291284279e-04
	1.311290291284279e-04
	2.257712451096557e+00
	0.000000000000000e+00
	-5.415364319584620e-05
	1.290000000000000e-02
	9.700000000000006e-01

 98	9.800000000000006e-01
	1.313587824421989e-04
	1.313587824421989e-04
	2.211726712961421e+00
	0.000000000000000e+00
	-5.537737870218174e-05
	1.290000000000000e-02
	9.800000000000006e-01

 99	9.900000000000007e-01
	1.315799924218184e-04
	1.315799924218184e-04
	2.167506617844536e+00
	0.000000000000000e+00
	-5.660323575123413e-05
	1.290000000000000e-02
	9.900000000000007e-01

 100	1.000000000000001e+00
	1.317931235174397e-04
	1.317931235174397e-04
	2.124955122099362e+00
	0.000000000000000e+00
	-5.783113646382603e-05
	1.290000000000000e-02
	1.000000000000001e+00

 101	1.010000000000001e+00
	1.319986076774050e-04
	1.319986076774050e-04
	2.083982008467532e+00
	0.000000000000000e+00
	-5.906100714414682e-05
	1.290000000000000e-02
	1.010000000000001e+00

 102	1.020000000000001e+00
	1.321968470916807e-04
	1.321968470916807e-04
	2.044503308052860e+00
	0.000000000000000e+00
	-6.029277798963352e-05
	1.290000000000000e-02
	1.020000000000001e+00

 103	1.030000000000001e+00
	1.323882166669850e-04
	1.323882166669850e-04
	2.006440778964083e+00
	0.000000000000000e+00
	-6.152638282517687e-05
	1.290000000000000e-02
	1.030000000000001e+00

 104	1.040000000000001e+00
	1.325730662631536e-04
	1.325730662631536e-04
	1.969721435358137e+00
	0.000000000000000e+00
	-6.276175885928532e-05
	1.290000000000000e-02
	1.040000000000001e+00

 105	1.050000000000001e+00
	1.327517227167452e-04
	1.327517227167452e-04
	1.934277121395073e+00
	0.000000000000000e+00
	-6.399884646009512e-05
	1.290000000000000e-02
	1.050000000000001e+00

 106	1.060000000000001e+00
	1.329244916747249e-04
	1.329244916747249e-04
	1.900044125273047e+00
	0.000000000000000e+00
	-6.523758894935409e-05
	1.290000000000000e-02
	1.060000000000001e+00

 107	1.070000000000001e+00
	1.330916592583856e-04
	1.330916592583856e-04
	1.866962829078605e+00
	0.000000000000000e+00
	-6.647793241269909e-05
	1.290000000000000e-02
	1.070000000000001e+00

 108	1.080000000000001e+00
	1.332534935752587e-04
	1.332534935752587e-04
	1.834977390701229e+00
	0.000000000000000e+00
	-6.771982552472427e-05
	1.290000000000000e-02
	1.080000000000001e+00

 109	1.090000000000001e+00
	1.334102460947397e-04
	1.334102460947397e-04
	1.804035454490955e+00
	0.000000000000000e+00
	-6.896321938750111e-05
	1.290000000000000e-02
	1.090000000000001e+00

 110	1.100000000000001e+00
	1.335621529013555e-04
	1.335621529013555e-04
	1.774087887714744e+00
	0.000000000000000e+00
	-7.020806738134207e-05
	1.290000000000000e-02
	1.100000000000001e+00

 111	1.110000000000001e+00
	1.337094358379706e-04
	1.337094358379706e-04
	1.745088540209282e+00
	0.000000000000000e+00
	-7.145432502672310e-05
	1.290000000000000e-02
	1.110000000000001e+00

 112	1.120000000000001e+00
	1.338523035499323e-04
	1.338523035499323e-04
	1.716994024917987e+00
	0.000000000000000e+00
	-7.270194985639255e-05
	1.290000000000000e-02
	1.120000000000001e+00

 113	1.130000000000001e+00
	1.339909524398514e-04
	1.339909524398514e-04
	1.689763517253522e+00
	0.000000000000000e+00
	-7.395090129678937e-05
	1.290000000000000e-02
	1.130000000000001e+00

 114	1.140000000000001e+00
	1.341255675417577e-04
	1.341255675417577e-04
	1.663358571448692e+00
	0.000000000000000e+00
	-7.520114055797917e-05
	1.290000000000000e-02
	1.140000000000001e+00

 115	1.150000000000001e+00
	1.342563233222923e-04
	1.342563233222923e-04
	1.637742952269850e+00
	0.000000000000000e+00
	-7.645263053138602e-05
	1.290000000000000e-02
	1.150000000000001e+00

 116	1.160000000000001e+00
	1.343833844159216e-04
	1.343833844159216e-04
	1.612882480630940e+00
	0.000000000000000e+00
	-7.770533569468454e-05
	1.290000000000000e-02
	1.160000000000001e+00

 117	1.170000000000001e+00
	1.345069063003216e-04
	1.345069063003216e-04
	1.588744891800324e+00
	0.000000000000000e+00
	-7.895922202325608e-05
	1.290000000000000e-02
	1.170000000000001e+00

 118	1.180000000000001e+00
	1.346270359174594e-04
	1.346270359174594e-04
	1.565299705033267e+00
	0.000000000000000e+00
	-8.021425690768405e-05
	1.290000000000000e-02
	1.180000000000001e+00

 119	1.190000000000001e+00
	1.347439122453699e-04
	1.347439122453699e-04
	1.542518103591528e+00
	0.000000000000000e+00
	-8.147040907679729e-05
	1.290000000000000e-02
	1.190000000000001e+00

 120	1.200000000000001e+00
	1.348576668250828e-04
	1.348576668250828e-04
	1.520372824195571e+00
	0.000000000000000e+00
	-8.272764852584340e-05
	1.290000000000000e-02
	1.200000000000001e+00

 121	1.210000000000001e+00
	1.349684242466623e-04
	1.349684242466623e-04
	1.498838055067035e+00
	0.000000000000000e+00
	-8.398594644936319e-05
	1.290000000000000e-02
	1.210000000000001e+00

 122	1.220000000000001e+00
	1.350763025980399e-04
	1.350763025980399e-04
	1.477889341814668e+00
	0.000000000000000e+00
	-8.524527517842596e-05
	1.290000000000000e-02
	1.220000000000001e+00

 123	1.230000000000001e+00
	1.351814138798451e-04
	1.351814138798451e-04
	1.457503500462340e+00
	0.000000000000000e+00
	-8.650560812188828e-05
	1.290000000000000e-02
	1.230000000000001e+00

 124	1.240000000000001e+00
	1.352838643891878e-04
	1.352838643891878e-04
	1.437658537001616e+00
	0.000000000000000e+00
	-8.776691971137147e-05
	1.290000000000000e-02
	1.240000000000001e+00

 125	1.250000000000001e+00
	1.353837550750327e-04
	1.353837550750327e-04
	1.418333572917287e+00
	0.000000000000000e+00
	-8.902918534967605e-05
	1.290000000000000e-02
	1.250000000000001e+00

 126	1.260000000000001e+00
	1.354811818675813e-04
	1.354811818675813e-04
	1.399508776180835e+00
	0.000000000000000e+00
	-9.029238136238990e-05
	1.290000000000000e-02
	1.260000000000001e+00

 127	1.270000000000001e+00
	1.355762359838266e-04
	1.355762359838266e-04
	1.381165297247492e+00
	0.000000000000000e+00
	-9.155648495245469e-05
	1.290000000000000e-02
	1.270000000000001e+00

 128	1.280000000000001e+00
	1.356690042112294e-04
	1.356690042112294e-04
	1.363285209644864e+00
	0.000000000000000e+00
	-9.282147415747576e-05
	1.290000000000000e-02
	1.280000000000001e+00

 129	1.290000000000001e+00
	1.357595691713615e-04
	1.357595691713615e-04
	1.345851454777555e+00
	0.000000000000000e+00
	-9.408732780958108e-05
	1.290000000000000e-02
	1.290000000000001e+00

 130	1.300000000000001e+00
	1.358480095650482e-04
	1.358480095650482e-04
	1.328847790608612e+00
	0.000000000000000e+00
	-9.535402549764891e-05
	1.290000000000000e-02
	1.300000000000001e+00

 131	1.310000000000001e+00
	1.359344004005824e-04
	1.359344004005824e-04
	1.312258743904641e+00
	0.000000000000000e+00
	-9.662154753174485e-05
	1.290000000000000e-02
	1.310000000000001e+00

 132	1.320000000000001e+00
	1.360188132062925e-04
	1.360188132062925e-04
	1.296069565758378e+00
	0.000000000000000e+00
	-9.788987490961151e-05
	1.290000000000000e-02
	1.320000000000001e+00

 133	1.330000000000001e+00
	1.361013162286926e-04
	1.361013162286926e-04
	1.280266190135476e+00
	0.000000000000000e+00
	-9.915898928506969e-05
	1.290000000000000e-02
	1.330000000000001e+00

 134	1.340000000000001e+00
	1.361819746173776e-04
	1.361819746173776e-04
	1.264835195214201e+00
	0.000000000000000e+00
	-1.004288729382051e-04
	1.290000000000000e-02
	1.340000000000001e+00

 135	1.350000000000001e+00
	1.362608505976234e-04
	1.362608505976234e-04
	1.249763767291158e+00
	0.000000000000000e+00
	-1.016995087472284e-04
	1.290000000000000e-02
	1.350000000000001e+00

 136	1.360000000000001e+00
	1.363380036316628e-04
	1.363380036316628e-04
	1.235039667069319e+00
	0.000000000000000e+00
	-1.029708801618771e-04
	1.290000000000000e-02
	1.360000000000001e+00

 137	1.370000000000001e+00
	1.364134905694802e-04
	1.364134905694802e-04
	1.220651198146380e+00
	0.000000000000000e+00
	-1.042429711782876e-04
	1.290000000000000e-02
	1.370000000000001e+00

 138	1.380000000000001e+00
	1.364873657899093e-04
	1.364873657899093e-04
	1.206587177532042e+00
	0.000000000000000e+00
	-1.055157663152194e-04
	1.290000000000000e-02
	1.380000000000001e+00

 139	1.390000000000001e+00
	1.365596813327291e-04
	1.365596813327291e-04
	1.192836908050992e+00
	0.000000000000000e+00
	-1.067892505915558e-04
	1.290000000000000e-02
	1.390000000000001e+00

 140	1.400000000000001e+00
	1.366304870224463e-04
	1.366304870224463e-04
	1.179390152494630e+00
	0.000000000000000e+00
	-1.080634095049936e-04
	1.290000000000000e-02
	1.400000000000001e+00

 141	1.410000000000001e+00
	1.366998305843377e-04
	1.366998305843377e-04
	1.166237109391110e+00
	0.000000000000000e+00
	-1.093382290118595e-04
	1.290000000000000e-02
	1.410000000000001e+00

 142	1.420000000000001e+00
	1.367677577533286e-04
	1.367677577533286e-04
	1.153368390276007e+00
	0.000000000000000e+00
	-1.106136955079683e-04
	1.290000000000000e-02
	1.420000000000001e+00

 143	1.430000000000001e+00
	1.368343123762014e-04
	1.368343123762014e-04
	1.140774998362754e+00
	0.000000000000000e+00
	-1.118897958104696e-04
	1.290000000000000e-02
	1.430000000000001e+00

 144	1.440000000000001e+00
	1.368995365076035e-04
	1.368995365076035e-04
	1.128448308508937e+00
	0.000000000000000e+00
	-1.131665171406183e-04
	1.290000000000000e-02
	1.440000000000001e+00

 145	1.450000000000001e+00
	1.369634705002874e-04
	1.369634705002874e-04
	1.116380048390657e+00
	0.000000000000000e+00
	-1.144438471074132e-04
	1.290000000000000e-02
	1.450000000000001e+00

 146	1.460000000000001e+00
	1.370261530899978e-04
	1.370261530899978e-04
	1.104562280802087e+00
	0.000000000000000e+00
	-1.157217736920540e-04
	1.290000000000000e-02
	1.460000000000001e+00

 147	1.470000000000001e+00
	1.370876214753427e-04
	1.370876214753427e-04
	1.092987387000198e+00
	0.000000000000000e+00
	-1.170002852331684e-04
	1.290000000000000e-02
	1.470000000000001e+00

 148	1.480000000000001e+00
	1.371479113930000e-04
	1.371479113930000e-04
	1.081648051025926e+00
	0.000000000000000e+00
	-1.182793704127596e-04
	1.290000000000000e-02
	1.480000000000001e+00

 149	1.490000000000001e+00
	1.372070571885837e-04
	1.372070571885837e-04
	1.070537244937152e+00
	0.000000000000000e+00
	-1.195590182428391e-04
	1.290000000000000e-02
	1.490000000000001e+00

 150	1.500000000000001e+00
	1.372650918834401e-04
	1.372650918834401e-04
	1.059648214889614e+00
	0.000000000000000e+00
	-1.208392180527012e-04
	1.290000000000000e-02
	1.500000000000001e+00

 151	1.510000000000001e+00
	1.373220472376627e-04
	1.373220472376627e-04
	1.048974468011557e+00
	0.000000000000000e+00
	-1.221199594768031e-04
	1.290000000000000e-02
	1.510000000000001e+00

 152	1.520000000000001e+00
	1.373779538095345e-04
	1.373779538095345e-04
	1.038509760021497e+00
	0.000000000000000e+00
	-1.234012324432166e-04
	1.290000000000000e-02
	1.520000000000001e+00

 153	1.530000000000001e+00
	1.374328410116946e-04
	1.374328410116946e-04
	1.028248083538950e+00
	0.000000000000000e+00
	-1.246830271626224e-04
	1.290000000000000e-02
	1.530000000000001e+00

 154	1.540000000000001e+00
	1.374867371641594e-04
	1.374867371641594e-04
	1.018183657041660e+00
	0.000000000000000e+00
	-1.259653341178127e-04
	1.290000000000000e-02
	1.540000000000001e+00

 155	1.550000000000001e+00
	1.375396695444650e-04
	1.375396695444650e-04
	1.008310914434358e+00
	0.000000000000000e+00
	-1.272481440536733e-04
	1.290000000000000e-02
	1.550000000000001e+00

 156	1.560000000000001e+00
	1.375916644350754e-04
	1.375916644350754e-04
	9.986244951831129e-01