Title: ** sch_path: /workspaces/usm-vlsi-tools/shared_xserver/parametros_vaf/zeta_test.sch
Date: Mon Aug  4 22:27:07  2025
Plotname: Operating Point
Flags: real
No. Variables: 4
No. Points: 1
Variables:
	0	v(net1)	voltage
	1	i(v2)	current
	2	i(vd)	current
	3	v(vdd)	voltage
Values:
 0	1.200000000000000e+00
	-1.140955994973278e-03
	1.140955994973278e-03
	1.200000000000000e+00

