Title: ** sch_path: /workspaces/usm-vlsi-tools/shared_xserver/parametros_vaf/n_test.sch
Date: Tue Aug 26 18:55:57  2025
Plotname: DC transfer characteristic
Flags: real
No. Variables: 7
No. Points: 401
Variables:
	0	v(v-sweep)	voltage
	1	i(@i0[current])	current
	2	v(net1)	voltage
	3	i(v1)	current
	4	i(v2)	current
	5	v(vg)	voltage
	6	v(vs)	voltage
Values:
 0	-1.000000000000000e+00
	1.272757596621453e-05
	1.200000000000000e+00
	1.272757771441659e-05
	-1.272757596621453e-05
	-7.482020842358393e-01
	-1.000000000000000e+00

 1	-9.900000000000000e-01
	1.272757596621453e-05
	1.200000000000000e+00
	1.272757769208699e-05
	-1.272757596621453e-05
	-7.358724223410706e-01
	-9.900000000000000e-01

 2	-9.800000000000000e-01
	1.272757596621453e-05
	1.200000000000000e+00
	1.272757766975727e-05
	-1.272757596621453e-05
	-7.235427230711728e-01
	-9.800000000000000e-01

 3	-9.700000000000000e-01
	1.272757596621453e-05
	1.200000000000000e+00
	1.272757764742753e-05
	-1.272757596621453e-05
	-7.112129896427682e-01
	-9.700000000000000e-01

 4	-9.600000000000000e-01
	1.272757596621453e-05
	1.200000000000000e+00
	1.272757762509777e-05
	-1.272757596621453e-05
	-6.988832249957773e-01
	-9.600000000000000e-01

 5	-9.500000000000000e-01
	1.272757596621453e-05
	1.200000000000000e+00
	1.272757760276794e-05
	-1.272757596621453e-05
	-6.865534318171997e-01
	-9.500000000000000e-01

 6	-9.399999999999999e-01
	1.272757596621453e-05
	1.200000000000000e+00
	1.272757758043812e-05
	-1.272757596621453e-05
	-6.742236125628538e-01
	-9.399999999999999e-01

 7	-9.299999999999999e-01
	1.272757596621453e-05
	1.200000000000000e+00
	1.272757755810825e-05
	-1.272757596621453e-05
	-6.618937694772516e-01
	-9.299999999999999e-01

 8	-9.199999999999999e-01
	1.272757596621453e-05
	1.200000000000000e+00
	1.272757753577840e-05
	-1.272757596621453e-05
	-6.495639046117690e-01
	-9.199999999999999e-01

 9	-9.099999999999999e-01
	1.272757596621453e-05
	1.200000000000000e+00
	1.272757751344858e-05
	-1.272757596621453e-05
	-6.372340198412536e-01
	-9.099999999999999e-01

 10	-8.999999999999999e-01
	1.272757596621453e-05
	1.200000000000000e+00
	1.272757749111862e-05
	-1.272757596621453e-05
	-6.249041168792068e-01
	-8.999999999999999e-01

 11	-8.899999999999999e-01
	1.272757596621453e-05
	1.200000000000000e+00
	1.272757746878866e-05
	-1.272757596621453e-05
	-6.125741972916624e-01
	-8.899999999999999e-01

 12	-8.799999999999999e-01
	1.272757596621453e-05
	1.200000000000000e+00
	1.272757744645884e-05
	-1.272757596621453e-05
	-6.002442625098711e-01
	-8.799999999999999e-01

 13	-8.699999999999999e-01
	1.272757596621453e-05
	1.200000000000000e+00
	1.272757742412878e-05
	-1.272757596621453e-05
	-5.879143138418962e-01
	-8.699999999999999e-01

 14	-8.599999999999999e-01
	1.272757596621453e-05
	1.200000000000000e+00
	1.272757740179890e-05
	-1.272757596621453e-05
	-5.755843524832119e-01
	-8.599999999999999e-01

 15	-8.499999999999999e-01
	1.272757596621453e-05
	1.200000000000000e+00
	1.272757737946894e-05
	-1.272757596621453e-05
	-5.632543795263919e-01
	-8.499999999999999e-01

 16	-8.399999999999999e-01
	1.272757596621453e-05
	1.200000000000000e+00
	1.272757735713893e-05
	-1.272757596621453e-05
	-5.509243959699611e-01
	-8.399999999999999e-01

 17	-8.299999999999998e-01
	1.272757596621453e-05
	1.200000000000000e+00
	1.272757733480898e-05
	-1.272757596621453e-05
	-5.385944027264914e-01
	-8.299999999999998e-01

 18	-8.199999999999998e-01
	1.272757596621453e-05
	1.200000000000000e+00
	1.272757731247891e-05
	-1.272757596621453e-05
	-5.262644006299967e-01
	-8.199999999999998e-01

 19	-8.099999999999998e-01
	1.272757596621453e-05
	1.200000000000000e+00
	1.272757729014895e-05
	-1.272757596621453e-05
	-5.139343904426944e-01
	-8.099999999999998e-01

 20	-7.999999999999998e-01
	1.272757596621453e-05
	1.200000000000000e+00
	1.272757726781892e-05
	-1.272757596621453e-05
	-5.016043728611854e-01
	-7.999999999999998e-01

 21	-7.899999999999998e-01
	1.272757596621453e-05
	1.200000000000000e+00
	1.272757724548891e-05
	-1.272757596621453e-05
	-4.892743485221001e-01
	-7.899999999999998e-01

 22	-7.799999999999998e-01
	1.272757596621453e-05
	1.200000000000000e+00
	1.272757722315887e-05
	-1.272757596621453e-05
	-4.769443180072615e-01
	-7.799999999999998e-01

 23	-7.699999999999998e-01
	1.272757596621453e-05
	1.200000000000000e+00
	1.272757720082887e-05
	-1.272757596621453e-05
	-4.646142818484016e-01
	-7.699999999999998e-01

 24	-7.599999999999998e-01
	1.272757596621453e-05
	1.200000000000000e+00
	1.272757717849878e-05
	-1.272757596621453e-05
	-4.522842405314751e-01
	-7.599999999999998e-01

 25	-7.499999999999998e-01
	1.272757596621453e-05
	1.200000000000000e+00
	1.272757715616870e-05
	-1.272757596621453e-05
	-4.399541945005974e-01
	-7.499999999999998e-01

 26	-7.399999999999998e-01
	1.272757596621453e-05
	1.200000000000000e+00
	1.272757713383870e-05
	-1.272757596621453e-05
	-4.276241441616476e-01
	-7.399999999999998e-01

 27	-7.299999999999998e-01
	1.272757596621453e-05
	1.200000000000000e+00
	1.272757711150862e-05
	-1.272757596621453e-05
	-4.152940898855606e-01
	-7.299999999999998e-01

 28	-7.199999999999998e-01
	1.272757596621453e-05
	1.200000000000000e+00
	1.272757708917854e-05
	-1.272757596621453e-05
	-4.029640320113346e-01
	-7.199999999999998e-01

 29	-7.099999999999997e-01
	1.272757596621453e-05
	1.200000000000000e+00
	1.272757706684850e-05
	-1.272757596621453e-05
	-3.906339708487799e-01
	-7.099999999999997e-01

 30	-6.999999999999997e-01
	1.272757596621453e-05
	1.200000000000000e+00
	1.272757704451844e-05
	-1.272757596621453e-05
	-3.783039066810330e-01
	-6.999999999999997e-01

 31	-6.899999999999997e-01
	1.272757596621453e-05
	1.200000000000000e+00
	1.272757702218835e-05
	-1.272757596621453e-05
	-3.659738397668527e-01
	-6.899999999999997e-01

 32	-6.799999999999997e-01
	1.272757596621453e-05
	1.200000000000000e+00
	1.272757699985835e-05
	-1.272757596621453e-05
	-3.536437703427168e-01
	-6.799999999999997e-01

 33	-6.699999999999997e-01
	1.272757596621453e-05
	1.200000000000000e+00
	1.272757697752823e-05
	-1.272757596621453e-05
	-3.413136986247448e-01
	-6.699999999999997e-01

 34	-6.599999999999997e-01
	1.272757596621453e-05
	1.200000000000000e+00
	1.272757695519815e-05
	-1.272757596621453e-05
	-3.289836248104462e-01
	-6.599999999999997e-01

 35	-6.499999999999997e-01
	1.272757596621453e-05
	1.200000000000000e+00
	1.272757693286809e-05
	-1.272757596621453e-05
	-3.166535490803243e-01
	-6.499999999999997e-01

 36	-6.399999999999997e-01
	1.272757596621453e-05
	1.200000000000000e+00
	1.272757691053799e-05
	-1.272757596621453e-05
	-3.043234715993414e-01
	-6.399999999999997e-01

 37	-6.299999999999997e-01
	1.272757596621453e-05
	1.200000000000000e+00
	1.272757688820791e-05
	-1.272757596621453e-05
	-2.919933925182558e-01
	-6.299999999999997e-01

 38	-6.199999999999997e-01
	1.272757596621453e-05
	1.200000000000000e+00
	1.272757686587784e-05
	-1.272757596621453e-05
	-2.796633119748450e-01
	-6.199999999999997e-01

 39	-6.099999999999997e-01
	1.272757596621453e-05
	1.200000000000000e+00
	1.272757684354777e-05
	-1.272757596621453e-05
	-2.673332300950234e-01
	-6.099999999999997e-01

 40	-5.999999999999996e-01
	1.272757596621453e-05
	1.200000000000000e+00
	1.272757682121765e-05
	-1.272757596621453e-05
	-2.550031469938640e-01
	-5.999999999999996e-01

 41	-5.899999999999996e-01
	1.272757596621453e-05
	1.200000000000000e+00
	1.272757679888761e-05
	-1.272757596621453e-05
	-2.426730627765301e-01
	-5.899999999999996e-01

 42	-5.799999999999996e-01
	1.272757596621453e-05
	1.200000000000000e+00
	1.272757677655751e-05
	-1.272757596621453e-05
	-2.303429775391320e-01
	-5.799999999999996e-01

 43	-5.699999999999996e-01
	1.272757596621453e-05
	1.200000000000000e+00
	1.272757675422745e-05
	-1.272757596621453e-05
	-2.180128913695030e-01
	-5.699999999999996e-01

 44	-5.599999999999996e-01
	1.272757596621453e-05
	1.200000000000000e+00
	1.272757673189735e-05
	-1.272757596621453e-05
	-2.056828043479140e-01
	-5.599999999999996e-01

 45	-5.499999999999996e-01
	1.272757596621453e-05
	1.200000000000000e+00
	1.272757670956723e-05
	-1.272757596621453e-05
	-1.933527165477244e-01
	-5.499999999999996e-01

 46	-5.399999999999996e-01
	1.272757596621453e-05
	1.200000000000000e+00
	1.272757668723715e-05
	-1.272757596621453e-05
	-1.810226280359764e-01
	-5.399999999999996e-01

 47	-5.299999999999996e-01
	1.272757596621453e-05
	1.200000000000000e+00
	1.272757666490708e-05
	-1.272757596621453e-05
	-1.686925388739396e-01
	-5.299999999999996e-01

 48	-5.199999999999996e-01
	1.272757596621453e-05
	1.200000000000000e+00
	1.272757664257697e-05
	-1.272757596621453e-05
	-1.563624491176085e-01
	-5.199999999999996e-01

 49	-5.099999999999996e-01
	1.272757596621453e-05
	1.200000000000000e+00
	1.272757662024687e-05
	-1.272757596621453e-05
	-1.440323588181555e-01
	-5.099999999999996e-01

 50	-4.999999999999996e-01
	1.272757596621453e-05
	1.200000000000000e+00
	1.272757659791679e-05
	-1.272757596621453e-05
	-1.317022680223471e-01
	-4.999999999999996e-01

 51	-4.899999999999995e-01
	1.272757596621453e-05
	1.200000000000000e+00
	1.272757657558671e-05
	-1.272757596621453e-05
	-1.193721767729227e-01
	-4.899999999999995e-01

 52	-4.799999999999995e-01
	1.272757596621453e-05
	1.200000000000000e+00
	1.272757655325663e-05
	-1.272757596621453e-05
	-1.070420851089420e-01
	-4.799999999999995e-01

 53	-4.699999999999995e-01
	1.272757596621453e-05
	1.200000000000000e+00
	1.272757653092653e-05
	-1.272757596621453e-05
	-9.471199306610106e-02
	-4.699999999999995e-01

 54	-4.599999999999995e-01
	1.272757596621453e-05
	1.200000000000000e+00
	1.272757650859642e-05
	-1.272757596621453e-05
	-8.238190067702211e-02
	-4.599999999999995e-01

 55	-4.499999999999995e-01
	1.272757596621453e-05
	1.200000000000000e+00
	1.272757648626632e-05
	-1.272757596621453e-05
	-7.005180797151869e-02
	-4.499999999999995e-01

 56	-4.399999999999995e-01
	1.272757596621453e-05
	1.200000000000000e+00
	1.272757646393626e-05
	-1.272757596621453e-05
	-5.772171497683722e-02
	-4.399999999999995e-01

 57	-4.299999999999995e-01
	1.272757596621453e-05
	1.200000000000000e+00
	1.272757644160616e-05
	-1.272757596621453e-05
	-4.539162171787792e-02
	-4.299999999999995e-01

 58	-4.199999999999995e-01
	1.272757596621453e-05
	1.200000000000000e+00
	1.272757641927606e-05
	-1.272757596621453e-05
	-3.306152821739707e-02
	-4.199999999999995e-01

 59	-4.099999999999995e-01
	1.272757596621453e-05
	1.200000000000000e+00
	1.272757639694594e-05
	-1.272757596621453e-05
	-2.073143449619130e-02
	-4.099999999999995e-01

 60	-3.999999999999995e-01
	1.272757596621453e-05
	1.200000000000000e+00
	1.272757637461589e-05
	-1.272757596621453e-05
	-8.401340573266188e-03
	-3.999999999999995e-01

 61	-3.899999999999995e-01
	1.272757596621453e-05
	1.200000000000000e+00
	1.272757635228575e-05
	-1.272757596621453e-05
	3.928753534007867e-03
	-3.899999999999995e-01

 62	-3.799999999999994e-01
	1.272757596621453e-05
	1.200000000000000e+00
	1.272757632995570e-05
	-1.272757596621453e-05
	1.625884780975820e-02
	-3.799999999999994e-01

 63	-3.699999999999994e-01
	1.272757596621453e-05
	1.200000000000000e+00
	1.272757630762560e-05
	-1.272757596621453e-05
	2.858894223947711e-02
	-3.699999999999994e-01

 64	-3.599999999999994e-01
	1.272757596621453e-05
	1.200000000000000e+00
	1.272757628529551e-05
	-1.272757596621453e-05
	4.091903680990706e-02
	-3.599999999999994e-01

 65	-3.499999999999994e-01
	1.272757596621453e-05
	1.200000000000000e+00
	1.272757626296539e-05
	-1.272757596621453e-05
	5.324913150893156e-02
	-3.499999999999994e-01

 66	-3.399999999999994e-01
	1.272757596621453e-05
	1.200000000000000e+00
	1.272757624063530e-05
	-1.272757596621453e-05
	6.557922632547826e-02
	-3.399999999999994e-01

 67	-3.299999999999994e-01
	1.272757596621453e-05
	1.200000000000000e+00
	1.272757621830519e-05
	-1.272757596621453e-05
	7.790932124942708e-02
	-3.299999999999994e-01

 68	-3.199999999999994e-01
	1.272757596621453e-05
	1.200000000000000e+00
	1.272757619597511e-05
	-1.272757596621453e-05
	9.023941627153018e-02
	-3.199999999999994e-01

 69	-3.099999999999994e-01
	1.272757596621453e-05
	1.200000000000000e+00
	1.272757617364502e-05
	-1.272757596621453e-05
	1.025695113833358e-01
	-3.099999999999994e-01

 70	-2.999999999999994e-01
	1.272757596621453e-05
	1.200000000000000e+00
	1.272757615131494e-05
	-1.272757596621453e-05
	1.148996065771199e-01
	-2.999999999999994e-01

 71	-2.899999999999994e-01
	1.272757596621453e-05
	1.200000000000000e+00
	1.272757612898483e-05
	-1.272757596621453e-05
	1.272297018458235e-01
	-2.899999999999994e-01

 72	-2.799999999999994e-01
	1.272757596621453e-05
	1.200000000000000e+00
	1.272757610665473e-05
	-1.272757596621453e-05
	1.395597971829953e-01
	-2.799999999999994e-01

 73	-2.699999999999994e-01
	1.272757596621453e-05
	1.200000000000000e+00
	1.272757608432463e-05
	-1.272757596621453e-05
	1.518898925827401e-01
	-2.699999999999994e-01

 74	-2.599999999999993e-01
	1.272757596621453e-05
	1.200000000000000e+00
	1.272757606199454e-05
	-1.272757596621453e-05
	1.642199880396698e-01
	-2.599999999999993e-01

 75	-2.499999999999993e-01
	1.272757596621453e-05
	1.200000000000000e+00
	1.272757603966447e-05
	-1.272757596621453e-05
	1.765500835488600e-01
	-2.499999999999993e-01

 76	-2.399999999999993e-01
	1.272757596621453e-05
	1.200000000000000e+00
	1.272757601733434e-05
	-1.272757596621453e-05
	1.888801791058110e-01
	-2.399999999999993e-01

 77	-2.299999999999993e-01
	1.272757596621453e-05
	1.200000000000000e+00
	1.272757599500429e-05
	-1.272757596621453e-05
	2.012102747064103e-01
	-2.299999999999993e-01

 78	-2.199999999999993e-01
	1.272757596621453e-05
	1.200000000000000e+00
	1.272757597267415e-05
	-1.272757596621453e-05
	2.135403703468992e-01
	-2.199999999999993e-01

 79	-2.099999999999993e-01
	1.272757596621453e-05
	1.200000000000000e+00
	1.272757595034405e-05
	-1.272757596621453e-05
	2.258704660238432e-01
	-2.099999999999993e-01

 80	-1.999999999999993e-01
	1.272757596621453e-05
	1.200000000000000e+00
	1.272757592801395e-05
	-1.272757596621453e-05
	2.382005617341031e-01
	-1.999999999999993e-01

 81	-1.899999999999993e-01
	1.272757596621453e-05
	1.200000000000000e+00
	1.272757590568388e-05
	-1.272757596621453e-05
	2.505306574748103e-01
	-1.899999999999993e-01

 82	-1.799999999999993e-01
	1.272757596621453e-05
	1.200000000000000e+00
	1.272757588335376e-05
	-1.272757596621453e-05
	2.628607532433430e-01
	-1.799999999999993e-01

 83	-1.699999999999993e-01
	1.272757596621453e-05
	1.200000000000000e+00
	1.272757586102368e-05
	-1.272757596621453e-05
	2.751908490373049e-01
	-1.699999999999993e-01

 84	-1.599999999999993e-01
	1.272757596621453e-05
	1.200000000000000e+00
	1.272757583869362e-05
	-1.272757596621453e-05
	2.875209448545069e-01
	-1.599999999999993e-01

 85	-1.499999999999992e-01
	1.272757596621453e-05
	1.200000000000000e+00
	1.272757581636348e-05
	-1.272757596621453e-05
	2.998510406929476e-01
	-1.499999999999992e-01

 86	-1.399999999999992e-01
	1.272757596621453e-05
	1.200000000000000e+00
	1.272757579403340e-05
	-1.272757596621453e-05
	3.121811365507982e-01
	-1.399999999999992e-01

 87	-1.299999999999992e-01
	1.272757596621453e-05
	1.200000000000000e+00
	1.272757577170331e-05
	-1.272757596621453e-05
	3.245112324263873e-01
	-1.299999999999992e-01

 88	-1.199999999999992e-01
	1.272757596621453e-05
	1.200000000000000e+00
	1.272757574937320e-05
	-1.272757596621453e-05
	3.368413283181875e-01
	-1.199999999999992e-01

 89	-1.099999999999992e-01
	1.272757596621453e-05
	1.200000000000000e+00
	1.272757572704311e-05
	-1.272757596621453e-05
	3.491714242248029e-01
	-1.099999999999992e-01

 90	-9.999999999999924e-02
	1.272757596621453e-05
	1.200000000000000e+00
	1.272757570471300e-05
	-1.272757596621453e-05
	3.615015201449578e-01
	-9.999999999999924e-02

 91	-8.999999999999925e-02
	1.272757596621453e-05
	1.200000000000000e+00
	1.272757568238292e-05
	-1.272757596621453e-05
	3.738316160774867e-01
	-8.999999999999925e-02

 92	-7.999999999999925e-02
	1.272757596621453e-05
	1.200000000000000e+00
	1.272757566005280e-05
	-1.272757596621453e-05
	3.861617120213237e-01
	-7.999999999999925e-02

 93	-6.999999999999926e-02
	1.272757596621453e-05
	1.200000000000000e+00
	1.272757563772270e-05
	-1.272757596621453e-05
	3.984918079754952e-01
	-6.999999999999926e-02

 94	-5.999999999999926e-02
	1.272757596621453e-05
	1.200000000000000e+00
	1.272757561539258e-05
	-1.272757596621453e-05
	4.108219039391113e-01
	-5.999999999999926e-02

 95	-4.999999999999925e-02
	1.272757596621453e-05
	1.200000000000000e+00
	1.272757559306251e-05
	-1.272757596621453e-05
	4.231519999113587e-01
	-4.999999999999925e-02

 96	-3.999999999999925e-02
	1.272757596621453e-05
	1.200000000000000e+00
	1.272757557073246e-05
	-1.272757596621453e-05
	4.354820958914946e-01
	-3.999999999999925e-02

 97	-2.999999999999925e-02
	1.272757596621453e-05
	1.200000000000000e+00
	1.272757554840233e-05
	-1.272757596621453e-05
	4.478121918788391e-01
	-2.999999999999925e-02

 98	-1.999999999999925e-02
	1.272757596621453e-05
	1.200000000000000e+00
	1.272757552607226e-05
	-1.272757596621453e-05
	4.601422878727719e-01
	-1.999999999999925e-02

 99	-9.999999999999247e-03
	1.272757596621453e-05
	1.200000000000000e+00
	1.272757550374214e-05
	-1.272757596621453e-05
	4.724723838727256e-01
	-9.999999999999247e-03

 100	7.528699885739343e-16
	1.272757596621453e-05
	1.200000000000000e+00
	1.272757548141206e-05
	-1.272757596621453e-05
	4.848024798781818e-01
	7.528699885739343e-16

 101	1.000000000000075e-02
	1.272757596621453e-05
	1.200000000000000e+00
	1.272757545908199e-05
	-1.272757596621453e-05
	4.971325758886666e-01
	1.000000000000075e-02

 102	2.000000000000075e-02
	1.272757596621453e-05
	1.200000000000000e+00
	1.272757543675180e-05
	-1.272757596621453e-05
	5.094626719037466e-01
	2.000000000000075e-02

 103	3.000000000000076e-02
	1.272757596621453e-05
	1.200000000000000e+00
	1.272757541442177e-05
	-1.272757596621453e-05
	5.217927679230272e-01
	3.000000000000076e-02

 104	4.000000000000076e-02
	1.272757596621453e-05
	1.200000000000000e+00
	1.272757539209170e-05
	-1.272757596621453e-05
	5.341228639461458e-01
	4.000000000000076e-02

 105	5.000000000000076e-02
	1.272757596621453e-05
	1.200000000000000e+00
	1.272757536976158e-05
	-1.272757596621453e-05
	5.464529599727723e-01
	5.000000000000076e-02

 106	6.000000000000076e-02
	1.272757596621453e-05
	1.200000000000000e+00
	1.272757534743148e-05
	-1.272757596621453e-05
	5.587830560026045e-01
	6.000000000000076e-02

 107	7.000000000000076e-02
	1.272757596621453e-05
	1.200000000000000e+00
	1.272757532510134e-05
	-1.272757596621453e-05
	5.711131520353663e-01
	7.000000000000076e-02

 108	8.000000000000075e-02
	1.272757596621453e-05
	1.200000000000000e+00
	1.272757530277130e-05
	-1.272757596621453e-05
	5.834432480708055e-01
	8.000000000000075e-02

 109	9.000000000000075e-02
	1.272757596621453e-05
	1.200000000000000e+00
	1.272757528044121e-05
	-1.272757596621453e-05
	5.957733441086919e-01
	9.000000000000075e-02

 110	1.000000000000007e-01
	1.272757596621453e-05
	1.200000000000000e+00
	1.272757525811111e-05
	-1.272757596621453e-05
	6.081034401488143e-01
	1.000000000000007e-01

 111	1.100000000000007e-01
	1.272757596621453e-05
	1.200000000000000e+00
	1.272757523578099e-05
	-1.272757596621453e-05
	6.204335361909802e-01
	1.100000000000007e-01

 112	1.200000000000007e-01
	1.272757596621453e-05
	1.200000000000000e+00
	1.272757521345093e-05
	-1.272757596621453e-05
	6.327636322350139e-01
	1.200000000000007e-01

 113	1.300000000000007e-01
	1.272757596621453e-05
	1.200000000000000e+00
	1.272757519112081e-05
	-1.272757596621453e-05
	6.450937282807544e-01
	1.300000000000007e-01

 114	1.400000000000007e-01
	1.272757596621453e-05
	1.200000000000000e+00
	1.272757516879074e-05
	-1.272757596621453e-05
	6.574238243280550e-01
	1.400000000000007e-01

 115	1.500000000000007e-01
	1.272757596621453e-05
	1.200000000000000e+00
	1.272757514646065e-05
	-1.272757596621453e-05
	6.697539203767808e-01
	1.500000000000007e-01

 116	1.600000000000008e-01
	1.272757596621453e-05
	1.200000000000000e+00
	1.272757512413050e-05
	-1.272757596621453e-05
	6.820840164268094e-01
	1.600000000000008e-01

 117	1.700000000000008e-01
	1.272757596621453e-05
	1.200000000000000e+00
	1.272757510180041e-05
	-1.272757596621453e-05
	6.944141124780289e-01
	1.700000000000008e-01

 118	1.800000000000008e-01
	1.272757596621453e-05
	1.200000000000000e+00
	1.272757507947032e-05
	-1.272757596621453e-05
	7.067442085303364e-01
	1.800000000000008e-01

 119	1.900000000000008e-01
	1.272757596621453e-05
	1.200000000000000e+00
	1.272757505714020e-05
	-1.272757596621453e-05
	7.190743045836383e-01
	1.900000000000008e-01

 120	2.000000000000008e-01
	1.272757596621453e-05
	1.200000000000000e+00
	1.272757503481016e-05
	-1.272757596621453e-05
	7.314044006378491e-01
	2.000000000000008e-01

 121	2.100000000000008e-01
	1.272757596621453e-05
	1.200000000000000e+00
	1.272757501248004e-05
	-1.272757596621453e-05
	7.437344966928902e-01
	2.100000000000008e-01

 122	2.200000000000008e-01
	1.272757596621453e-05
	1.200000000000000e+00
	1.272757499014992e-05
	-1.272757596621453e-05
	7.560645927486904e-01
	2.200000000000008e-01

 123	2.300000000000008e-01
	1.272757596621453e-05
	1.200000000000000e+00
	1.272757496781978e-05
	-1.272757596621453e-05
	7.683946888051840e-01
	2.300000000000008e-01

 124	2.400000000000008e-01
	1.272757596621453e-05
	1.200000000000000e+00
	1.272757494548968e-05
	-1.272757596621453e-05
	7.807247848623119e-01
	2.400000000000008e-01

 125	2.500000000000008e-01
	1.272757596621453e-05
	1.200000000000000e+00
	1.272757492315967e-05
	-1.272757596621453e-05
	7.930548809200193e-01
	2.500000000000008e-01

 126	2.600000000000008e-01
	1.272757596621453e-05
	1.200000000000000e+00
	1.272757490082955e-05
	-1.272757596621453e-05
	8.053849769782560e-01
	2.600000000000008e-01

 127	2.700000000000009e-01
	1.272757596621453e-05
	1.200000000000000e+00
	1.272757487849949e-05
	-1.272757596621453e-05
	8.177150730369764e-01
	2.700000000000009e-01

 128	2.800000000000009e-01
	1.272757596621453e-05
	1.200000000000000e+00
	1.272757485616934e-05
	-1.272757596621453e-05
	8.300451690961391e-01
	2.800000000000009e-01

 129	2.900000000000009e-01
	1.272757596621453e-05
	1.200000000000000e+00
	1.272757483383922e-05
	-1.272757596621453e-05
	8.423752651557058e-01
	2.900000000000009e-01

 130	3.000000000000009e-01
	1.272757596621453e-05
	1.200000000000000e+00
	1.272757481150916e-05
	-1.272757596621453e-05
	8.547053612156421e-01
	3.000000000000009e-01

 131	3.100000000000009e-01
	1.272757596621453e-05
	1.200000000000000e+00
	1.272757478917912e-05
	-1.272757596621453e-05
	8.670354572759159e-01
	3.100000000000009e-01

 132	3.200000000000009e-01
	1.272757596621453e-05
	1.200000000000000e+00
	1.272757476684903e-05
	-1.272757596621453e-05
	8.793655533364980e-01
	3.200000000000009e-01

 133	3.300000000000009e-01
	1.272757596621453e-05
	1.200000000000000e+00
	1.272757474451888e-05
	-1.272757596621453e-05
	8.916956493973620e-01
	3.300000000000009e-01

 134	3.400000000000009e-01
	1.272757596621453e-05
	1.200000000000000e+00
	1.272757472218879e-05
	-1.272757596621453e-05
	9.040257454584836e-01
	3.400000000000009e-01

 135	3.500000000000009e-01
	1.272757596621453e-05
	1.200000000000000e+00
	1.272757469985869e-05
	-1.272757596621453e-05
	9.163558415198408e-01
	3.500000000000009e-01

 136	3.600000000000009e-01
	1.272757596621453e-05
	1.200000000000000e+00
	1.272757467752860e-05
	-1.272757596621453e-05
	9.286859375814129e-01
	3.600000000000009e-01

 137	3.700000000000009e-01
	1.272757596621453e-05
	1.200000000000000e+00
	1.272757465519846e-05
	-1.272757596621453e-05
	9.410160336431819e-01
	3.700000000000009e-01

 138	3.800000000000009e-01
	1.272757596621453e-05
	1.200000000000000e+00
	1.272757463286839e-05
	-1.272757596621453e-05
	9.533461297051308e-01
	3.800000000000009e-01

 139	3.900000000000010e-01
	1.272757596621453e-05
	1.200000000000000e+00
	1.272757461053830e-05
	-1.272757596621453e-05
	9.656762257672434e-01
	3.900000000000010e-01

 140	4.000000000000010e-01
	1.272757596621453e-05
	1.200000000000000e+00
	1.272757458820826e-05
	-1.272757596621453e-05
	9.780063218295064e-01
	4.000000000000010e-01

 141	4.100000000000010e-01
	1.272757596621453e-05
	1.200000000000000e+00
	1.272757456587814e-05
	-1.272757596621453e-05
	9.903364178919066e-01
	4.100000000000010e-01

 142	4.200000000000010e-01
	1.272757596621453e-05
	1.200000000000000e+00
	1.272757454354813e-05
	-1.272757596621453e-05
	1.002666513954432e+00
	4.200000000000010e-01

 143	4.300000000000010e-01
	1.272757596621453e-05
	1.200000000000000e+00
	1.272757452121801e-05
	-1.272757596621453e-05
	1.014996610017072e+00
	4.300000000000010e-01

 144	4.400000000000010e-01
	1.272757596621453e-05
	1.200000000000000e+00
	1.272757449888784e-05
	-1.272757596621453e-05
	1.027326706079817e+00
	4.400000000000010e-01

 145	4.500000000000010e-01
	1.272757596621453e-05
	1.200000000000000e+00
	1.272757447655766e-05
	-1.272757596621453e-05
	1.039656802142657e+00
	4.500000000000010e-01

 146	4.600000000000010e-01
	1.272757596621453e-05
	1.200000000000000e+00
	1.272757445422760e-05
	-1.272757596621453e-05
	1.051986898205585e+00
	4.600000000000010e-01

 147	4.700000000000010e-01
	1.272757596621453e-05
	1.200000000000000e+00
	1.272757443189753e-05
	-1.272757596621453e-05
	1.064316994268593e+00
	4.700000000000010e-01

 148	4.800000000000010e-01
	1.272757596621453e-05
	1.200000000000000e+00
	1.272757440956741e-05
	-1.272757596621453e-05
	1.076647090331674e+00
	4.800000000000010e-01

 149	4.900000000000010e-01
	1.272757596621453e-05
	1.200000000000000e+00
	1.272757438723740e-05
	-1.272757596621453e-05
	1.088977186394822e+00
	4.900000000000010e-01

 150	5.000000000000010e-01
	1.272757596621453e-05
	1.200000000000000e+00
	1.272757436490717e-05
	-1.272757596621453e-05
	1.101307282458030e+00
	5.000000000000010e-01

 151	5.100000000000010e-01
	1.272757596621453e-05
	1.200000000000000e+00
	1.272757434257716e-05
	-1.272757596621453e-05
	1.113637378521294e+00
	5.100000000000010e-01

 152	5.200000000000010e-01
	1.272757596621453e-05
	1.200000000000000e+00
	1.272757432024704e-05
	-1.272757596621453e-05
	1.125967474584610e+00
	5.200000000000010e-01

 153	5.300000000000010e-01
	1.272757596621453e-05
	1.200000000000000e+00
	1.272757429791698e-05
	-1.272757596621453e-05
	1.138297570647972e+00
	5.300000000000010e-01

 154	5.400000000000010e-01
	1.272757596621453e-05
	1.200000000000000e+00
	1.272757427558691e-05
	-1.272757596621453e-05
	1.150627666711376e+00
	5.400000000000010e-01

 155	5.500000000000010e-01
	1.272757596621453e-05
	1.200000000000000e+00
	1.272757425325674e-05
	-1.272757596621453e-05
	1.162957762774819e+00
	5.500000000000010e-01

 156	5.600000000000011e-01
	1.272757596621453e-05
	1.200000000000000e+00
	1.272757423092673e-05
	-1.272757596621453e-05
	1.175287858838298e+00
	5.600000000000011e-01

 157	5.700000000000011e-01
	1.272757596621453e-05
	1.200000000000000e+00
	1.272757420859655e-05
	-1.272757596621453e-05
	1.187617954901809e+00
	5.700000000000011e-01

 158	5.800000000000011e-01
	1.272757596621453e-05
	1.200000000000000e+00
	1.272757418626638e-05
	-1.272757596621453e-05
	1.199948050965350e+00
	5.800000000000011e-01

 159	5.900000000000011e-01
	1.272757596621453e-05
	1.200000000000000e+00
	1.272757416393631e-05
	-1.272757596621453e-05
	1.212278147028918e+00
	5.900000000000011e-01

 160	6.000000000000011e-01
	1.272757596621453e-05
	1.200000000000000e+00
	1.272757414160630e-05
	-1.272757596621453e-05
	1.224608243092511e+00
	6.000000000000011e-01

 161	6.100000000000011e-01
	1.272757596621453e-05
	1.200000000000000e+00
	1.272757411927618e-05
	-1.272757596621453e-05
	1.236938339156127e+00
	6.100000000000011e-01

 162	6.200000000000011e-01
	1.272757596621453e-05
	1.200000000000000e+00
	1.272757409694612e-05
	-1.272757596621453e-05
	1.249268435219763e+00
	6.200000000000011e-01

 163	6.300000000000011e-01
	1.272757596621453e-05
	1.200000000000000e+00
	1.272757407461600e-05
	-1.272757596621453e-05
	1.261598531283418e+00
	6.300000000000011e-01

 164	6.400000000000011e-01
	1.272757596621453e-05
	1.200000000000000e+00
	1.272757405228588e-05
	-1.272757596621453e-05
	1.273928627347091e+00
	6.400000000000011e-01

 165	6.500000000000011e-01
	1.272757596621453e-05
	1.200000000000000e+00
	1.272757402995571e-05
	-1.272757596621453e-05
	1.286258723410779e+00
	6.500000000000011e-01

 166	6.600000000000011e-01
	1.272757596621453e-05
	1.200000000000000e+00
	1.272757400762580e-05
	-1.272757596621453e-05
	1.298588819474482e+00
	6.600000000000011e-01

 167	6.700000000000012e-01
	1.272757596621453e-05
	1.200000000000000e+00
	1.272757398529563e-05
	-1.272757596621453e-05
	1.310918915538197e+00
	6.700000000000012e-01

 168	6.800000000000012e-01
	1.272757596621453e-05
	1.200000000000000e+00
	1.272757396296551e-05
	-1.272757596621453e-05
	1.323249011601925e+00
	6.800000000000012e-01

 169	6.900000000000012e-01
	1.272757596621453e-05
	1.200000000000000e+00
	1.272757394063539e-05
	-1.272757596621453e-05
	1.335579107665664e+00
	6.900000000000012e-01

 170	7.000000000000012e-01
	1.272757596621453e-05
	1.200000000000000e+00
	1.272757391830532e-05
	-1.272757596621453e-05
	1.347909203729413e+00
	7.000000000000012e-01

 171	7.100000000000012e-01
	1.272757596621453e-05
	1.200000000000000e+00
	1.272757389597526e-05
	-1.272757596621453e-05
	1.360239299793172e+00
	7.100000000000012e-01

 172	7.200000000000012e-01
	1.272757596621453e-05
	1.200000000000000e+00
	1.272757387364519e-05
	-1.272757596621453e-05
	1.372569395856938e+00
	7.200000000000012e-01

 173	7.300000000000012e-01
	1.272757596621453e-05
	1.200000000000000e+00
	1.272757385131507e-05
	-1.272757596621453e-05
	1.384899491920713e+00
	7.300000000000012e-01

 174	7.400000000000012e-01
	1.272757596621453e-05
	1.200000000000000e+00
	1.272757382898506e-05
	-1.272757596621453e-05
	1.397229587984494e+00
	7.400000000000012e-01

 175	7.500000000000012e-01
	1.272757596621453e-05
	1.200000000000000e+00
	1.272757380665484e-05
	-1.272757596621453e-05
	1.409559684048282e+00
	7.500000000000012e-01

 176	7.600000000000012e-01
	1.272757596621453e-05
	1.200000000000000e+00
	1.272757378432477e-05