Title: ** sch_path: /workspaces/usm-vlsi-tools/shared_xserver/parametros_vaf/vth_tets.sch
Date: Tue Aug 26 18:55:57  2025
Plotname: DC transfer characteristic
Flags: real
No. Variables: 7
No. Points: 301
Variables:
	0	v(v-sweep)	voltage
	1	@n1[gm_op]	admittance
	2	gm_id	notype
	3	i(v1)	current
	4	i(v2)	current
	5	v(vd)	voltage
	6	v(vg)	voltage
Values:
 0	0.000000000000000e+00
	1.074488222290579e-10
	2.851257938799625e+01
	0.000000000000000e+00
	-3.299000590402667e-12
	1.290000000000000e-02
	0.000000000000000e+00

 1	1.000000000000000e-02
	1.446430003987101e-10
	3.007740383830696e+01
	0.000000000000000e+00
	-4.436509042023366e-12
	1.290000000000000e-02
	1.000000000000000e-02

 2	2.000000000000000e-02
	1.947121730801071e-10
	3.009989790657234e+01
	0.000000000000000e+00
	-5.967774072187410e-12
	1.290000000000000e-02
	2.000000000000000e-02

 3	3.000000000000000e-02
	2.621130691215770e-10
	3.011662244350318e+01
	0.000000000000000e+00
	-8.029096848069975e-12
	1.290000000000000e-02
	3.000000000000000e-02

 4	4.000000000000000e-02
	3.528451072674123e-10
	3.012904898443075e+01
	0.000000000000000e+00
	-1.080395963890031e-11
	1.290000000000000e-02
	4.000000000000000e-02

 5	5.000000000000000e-02
	4.749843767066459e-10
	3.013827394096373e+01
	0.000000000000000e+00
	-1.453935743179478e-11
	1.290000000000000e-02
	5.000000000000000e-02

 6	6.000000000000000e-02
	6.394024291817168e-10
	3.014511332826792e+01
	0.000000000000000e+00
	-1.956778238300067e-11
	1.290000000000000e-02
	6.000000000000000e-02

 7	7.000000000000001e-02
	8.607338419257970e-10
	3.015017289288539e+01
	0.000000000000000e+00
	-2.633681778216357e-11
	1.290000000000000e-02
	7.000000000000001e-02

 8	8.000000000000000e-02
	1.158678610176619e-09
	3.015390144555969e+01
	0.000000000000000e+00
	-3.544897457461370e-11
	1.290000000000000e-02
	8.000000000000000e-02

 9	9.000000000000000e-02
	1.559755219198268e-09
	3.015662997966243e+01
	0.000000000000000e+00
	-4.771531549554463e-11
	1.290000000000000e-02
	9.000000000000000e-02

 10	9.999999999999999e-02
	2.099660246352974e-09
	3.015860085832511e+01
	0.000000000000000e+00
	-6.422763684985354e-11
	1.290000000000000e-02
	9.999999999999999e-02

 11	1.100000000000000e-01
	2.826444224200875e-09
	3.015998927814275e+01
	0.000000000000000e+00
	-8.645562877210835e-11
	1.290000000000000e-02
	1.100000000000000e-01

 12	1.200000000000000e-01
	3.804785868883327e-09
	3.016091864833791e+01
	0.000000000000000e+00
	-1.163776535858911e-10
	1.290000000000000e-02
	1.200000000000000e-01

 13	1.300000000000000e-01
	5.121744085803496e-09
	3.016147164112488e+01
	0.000000000000000e+00
	-1.566567676178786e-10
	1.290000000000000e-02
	1.300000000000000e-01

 14	1.400000000000000e-01
	6.894497862529149e-09
	3.016169743242161e+01
	0.000000000000000e+00
	-2.108776266638298e-10
	1.290000000000000e-02
	1.400000000000000e-01

 15	1.500000000000000e-01
	9.280759538947091e-09
	3.016161612278112e+01
	0.000000000000000e+00
	-2.838653110319107e-10
	1.290000000000000e-02
	1.500000000000000e-01

 16	1.600000000000000e-01
	1.249278215095930e-08
	3.016122050529938e+01
	0.000000000000000e+00
	-3.821143575021972e-10
	1.290000000000000e-02
	1.600000000000000e-01

 17	1.700000000000000e-01
	1.681619636545909e-08
	3.016047542530584e+01
	0.000000000000000e+00
	-5.143660189292023e-10
	1.290000000000000e-02
	1.700000000000000e-01

 18	1.800000000000000e-01
	2.263533329160537e-08
	3.015931469228586e+01
	0.000000000000000e+00
	-6.923848309727292e-10
	1.290000000000000e-02
	1.800000000000000e-01

 19	1.900000000000000e-01
	3.046725019089014e-08
	3.015763522676238e+01
	0.000000000000000e+00
	-9.320030590386371e-10
	1.290000000000000e-02
	1.900000000000000e-01

 20	2.000000000000000e-01
	4.100742080550660e-08
	3.015528797302548e+01
	0.000000000000000e+00
	-1.254524996667009e-09
	1.290000000000000e-02
	2.000000000000000e-01

 21	2.100000000000000e-01
	5.519103614637000e-08
	3.015206478962534e+01
	0.000000000000000e+00
	-1.688614309915686e-09
	1.290000000000000e-02
	2.100000000000000e-01

 22	2.200000000000001e-01
	7.427515326247385e-08
	3.014768020972764e+01
	0.000000000000000e+00
	-2.272829158212337e-09
	1.290000000000000e-02
	2.200000000000001e-01

 23	2.300000000000001e-01
	9.994860876107940e-08
	3.014174655432595e+01
	0.000000000000000e+00
	-3.059024842578288e-09
	1.290000000000000e-02
	2.300000000000001e-01

 24	2.400000000000001e-01
	1.344787674326643e-07
	3.013374036340693e+01
	0.000000000000000e+00
	-4.116916188379966e-09
	1.290000000000000e-02
	2.400000000000001e-01

 25	2.500000000000001e-01
	1.809068839898424e-07
	3.012295749970701e+01
	0.000000000000000e+00
	-5.540186512949261e-09
	1.290000000000000e-02
	2.500000000000001e-01

 26	2.600000000000001e-01
	2.433071598492454e-07
	3.010845353162477e+01
	0.000000000000000e+00
	-7.454652245780387e-09
	1.290000000000000e-02
	2.600000000000001e-01

 27	2.700000000000001e-01
	3.271284204575427e-07
	3.008896517026816e+01
	0.000000000000000e+00
	-1.002914752767927e-08
	1.290000000000000e-02
	2.700000000000001e-01

 28	2.800000000000001e-01
	4.396414517264830e-07
	3.006280769083444e+01
	0.000000000000000e+00
	-1.348998565873680e-08
	1.290000000000000e-02
	2.800000000000001e-01

 29	2.900000000000001e-01
	5.905187281386855e-07
	3.002774260724511e+01
	0.000000000000000e+00
	-1.814008441989366e-08
	1.290000000000000e-02
	2.900000000000001e-01

 30	3.000000000000001e-01
	7.925750870250722e-07
	2.998080978664701e+01
	0.000000000000000e+00
	-2.438410137542221e-08
	1.290000000000000e-02
	3.000000000000001e-01

 31	3.100000000000001e-01
	1.062695087274617e-06
	2.991811939295298e+01
	0.000000000000000e+00
	-3.276118652299080e-08
	1.290000000000000e-02
	3.100000000000001e-01

 32	3.200000000000001e-01
	1.422960465403439e-06
	2.983460275905442e+01
	0.000000000000000e+00
	-4.398716317241496e-08
	1.290000000000000e-02
	3.200000000000001e-01

 33	3.300000000000001e-01
	1.901961327742854e-06
	2.972372942070634e+01
	0.000000000000000e+00
	-5.900797731792483e-08
	1.290000000000000e-02
	3.300000000000001e-01

 34	3.400000000000001e-01
	2.536215742610015e-06
	2.957721273805513e+01
	0.000000000000000e+00
	-7.906590620163854e-08
	1.290000000000000e-02
	3.400000000000001e-01

 35	3.500000000000001e-01
	3.371519256779681e-06
	2.938475181436587e+01
	0.000000000000000e+00
	-1.057789598789843e-07
	1.290000000000000e-02
	3.500000000000001e-01

 36	3.600000000000002e-01
	4.463884771119461e-06
	2.913389471493140e+01
	0.000000000000000e+00
	-1.412316758661528e-07
	1.290000000000000e-02
	3.600000000000002e-01

 37	3.700000000000002e-01
	5.879513860574385e-06
	2.881015474681506e+01
	0.000000000000000e+00
	-1.880715353809419e-07
	1.290000000000000e-02
	3.700000000000002e-01

 38	3.800000000000002e-01
	7.693000786078453e-06
	2.839755497161071e+01
	0.000000000000000e+00
	-2.495990766220748e-07
	1.290000000000000e-02
	3.800000000000002e-01

 39	3.900000000000002e-01
	9.982821336620849e-06
	2.787978665796733e+01
	0.000000000000000e+00
	-3.298316053657149e-07
	1.290000000000000e-02
	3.900000000000002e-01

 40	4.000000000000002e-01
	1.282330958915735e-05
	2.724209855190265e+01
	0.000000000000000e+00
	-4.335117724350926e-07
	1.290000000000000e-02
	4.000000000000002e-01

 41	4.100000000000002e-01
	1.627304195552082e-05
	2.647384081965045e+01
	0.000000000000000e+00
	-5.660270139274498e-07
	1.290000000000000e-02
	4.100000000000002e-01

 42	4.200000000000002e-01
	2.036096791727780e-05
	2.557127334647647e+01
	0.000000000000000e+00
	-7.332099537618414e-07
	1.290000000000000e-02
	4.200000000000002e-01

 43	4.300000000000002e-01
	2.507344736094307e-05
	2.453991810598120e+01
	0.000000000000000e+00
	-9.410092568874761e-07
	1.290000000000000e-02
	4.300000000000002e-01

 44	4.400000000000002e-01
	3.034662920836788e-05
	2.339559656020530e+01
	0.000000000000000e+00
	-1.195055755781619e-06
	1.290000000000000e-02
	4.400000000000002e-01

 45	4.500000000000002e-01
	3.606809958496293e-05
	2.216353696585143e+01
	0.000000000000000e+00
	-1.500190103471839e-06
	1.290000000000000e-02
	4.500000000000002e-01

 46	4.600000000000002e-01
	4.208893696560351e-05
	2.087555272815112e+01
	0.000000000000000e+00
	-1.860046132063677e-06
	1.290000000000000e-02
	4.600000000000002e-01

 47	4.700000000000003e-01
	4.824334805212768e-05
	1.956599657925601e+01
	0.000000000000000e+00
	-2.276779925605616e-06
	1.290000000000000e-02
	4.700000000000003e-01

 48	4.800000000000003e-01
	5.437018777354699e-05
	1.826759923264812e+01
	0.000000000000000e+00
	-2.750995496786037e-06
	1.290000000000000e-02
	4.800000000000003e-01

 49	4.900000000000003e-01
	6.033055589307331e-05
	1.700820666800669e+01
	0.000000000000000e+00
	-3.281861590127756e-06
	1.290000000000000e-02
	4.900000000000003e-01

 50	5.000000000000002e-01
	6.601804532189790e-05
	1.580895748476391e+01
	0.000000000000000e+00
	-3.867367100399828e-06
	1.290000000000000e-02
	5.000000000000002e-01

 51	5.100000000000002e-01
	7.136135030169543e-05
	1.468389474112532e+01
	0.000000000000000e+00
	-4.504642431491663e-06
	1.290000000000000e-02
	5.100000000000002e-01

 52	5.200000000000002e-01
	7.632115918202749e-05
	1.364063739412937e+01
	0.000000000000000e+00
	-5.190281006608438e-06
	1.290000000000000e-02
	5.200000000000002e-01

 53	5.300000000000002e-01
	8.088397791567508e-05
	1.268162133716086e+01
	0.000000000000000e+00
	-5.920617255187317e-06
	1.290000000000000e-02
	5.300000000000002e-01

 54	5.400000000000003e-01
	8.505513677050697e-05
	1.180549257010429e+01
	0.000000000000000e+00
	-6.691941528859369e-06
	1.290000000000000e-02
	5.400000000000003e-01

 55	5.500000000000003e-01
	8.885240035922026e-05
	1.100838429083678e+01
	0.000000000000000e+00
	-7.500650575157748e-06
	1.290000000000000e-02
	5.500000000000003e-01

 56	5.600000000000003e-01
	9.230082234249622e-05
	1.028495237995519e+01
	0.000000000000000e+00
	-8.343342408111818e-06
	1.290000000000000e-02
	5.600000000000003e-01

 57	5.700000000000003e-01
	9.542895951598211e-05
	9.629143395664586e+00
	0.000000000000000e+00
	-9.216868162299564e-06
	1.290000000000000e-02
	5.700000000000003e-01

 58	5.800000000000003e-01
	9.826628587732496e-05
	9.034723285832776e+00
	0.000000000000000e+00
	-1.011835331198618e-05
	1.290000000000000e-02
	5.800000000000003e-01

 59	5.900000000000003e-01
	1.008415496662740e-04
	8.495615774965923e+00
	0.000000000000000e+00
	-1.104519860794126e-05
	1.290000000000000e-02
	5.900000000000003e-01

 60	6.000000000000003e-01
	1.031818162342211e-04
	8.006100836305002e+00
	0.000000000000000e+00
	-1.199506858261133e-05
	1.290000000000000e-02
	6.000000000000003e-01

 61	6.100000000000003e-01
	1.053119810953475e-04
	7.560916341077347e+00
	0.000000000000000e+00
	-1.296587318015687e-05
	1.290000000000000e-02
	6.100000000000003e-01

 62	6.200000000000003e-01
	1.072545890033086e-04
	7.155296169323860e+00
	0.000000000000000e+00
	-1.395574623069502e-05
	1.290000000000000e-02
	6.200000000000003e-01

 63	6.300000000000003e-01
	1.090298417541067e-04
	6.784968845250178e+00
	0.000000000000000e+00
	-1.496302313104783e-05
	1.290000000000000e-02
	6.300000000000003e-01

 64	6.400000000000003e-01
	1.106557147257487e-04
	6.446133264510875e+00
	0.000000000000000e+00
	-1.598621914619337e-05
	1.290000000000000e-02
	6.400000000000003e-01

 65	6.500000000000004e-01
	1.121481296970169e-04
	6.135422466756083e+00
	0.000000000000000e+00
	-1.702400911128859e-05
	1.290000000000000e-02
	6.500000000000004e-01

 66	6.600000000000004e-01
	1.135211508126278e-04
	5.849862420710132e+00
	0.000000000000000e+00
	-1.807520890570658e-05
	1.290000000000000e-02
	6.600000000000004e-01

 67	6.700000000000004e-01
	1.147871836392152e-04
	5.586830066854156e+00
	0.000000000000000e+00
	-1.913875881776815e-05
	1.290000000000000e-02
	6.700000000000004e-01

 68	6.800000000000004e-01
	1.159571658459683e-04
	5.344013061176246e+00
	0.000000000000000e+00
	-2.021370876981412e-05
	1.290000000000000e-02
	6.800000000000004e-01

 69	6.900000000000004e-01
	1.170407435325079e-04
	5.119372504719562e+00
	0.000000000000000e+00
	-2.129920529138214e-05
	1.290000000000000e-02
	6.900000000000004e-01

 70	7.000000000000004e-01
	1.180464306329450e-04
	4.911109220325264e+00
	0.000000000000000e+00
	-2.239448008863571e-05
	1.290000000000000e-02
	7.000000000000004e-01

 71	7.100000000000004e-01
	1.189817508647308e-04
	4.717633702384748e+00
	0.000000000000000e+00
	-2.349884004433593e-05
	1.290000000000000e-02
	7.100000000000004e-01

 72	7.200000000000004e-01
	1.198533628516383e-04
	4.537539615955932e+00
	0.000000000000000e+00
	-2.461165848383786e-05
	1.290000000000000e-02
	7.200000000000004e-01

 73	7.300000000000004e-01
	1.206671696576473e-04
	4.369580589935866e+00
	0.000000000000000e+00
	-2.573236755203178e-05
	1.290000000000000e-02
	7.300000000000004e-01

 74	7.400000000000004e-01
	1.214284142358976e-04
	4.212649990045548e+00
	0.000000000000000e+00
	-2.686045155960693e-05
	1.290000000000000e-02
	7.400000000000004e-01

 75	7.500000000000004e-01
	1.221417623619214e-04
	4.065763341956067e+00
	0.000000000000000e+00
	-2.799544117193572e-05
	1.290000000000000e-02
	7.500000000000004e-01

 76	7.600000000000005e-01
	1.228113745705884e-04
	3.928043084293556e+00
	0.000000000000000e+00
	-2.913690832878181e-05
	1.290000000000000e-02
	7.600000000000005e-01

 77	7.700000000000005e-01
	1.234409685061680e-04
	3.798705353817043e+00
	0.000000000000000e+00
	-3.028446179710706e-05
	1.290000000000000e-02
	7.700000000000005e-01

 78	7.800000000000005e-01
	1.240338729580339e-04
	3.677048533567282e+00
	0.000000000000000e+00
	-3.143774327210458e-05
	1.290000000000000e-02
	7.800000000000005e-01

 79	7.900000000000005e-01
	1.245930747106308e-04
	3.562443324980713e+00
	0.000000000000000e+00
	-3.259642395305420e-05
	1.290000000000000e-02
	7.900000000000005e-01

 80	8.000000000000005e-01
	1.251212591965492e-04
	3.454324134400861e+00
	0.000000000000000e+00
	-3.376020153070057e-05
	1.290000000000000e-02
	8.000000000000005e-01

 81	8.100000000000005e-01
	1.256208458118717e-04
	3.352181591799015e+00
	0.000000000000000e+00
	-3.492879753164892e-05
	1.290000000000000e-02
	8.100000000000005e-01

 82	8.200000000000005e-01
	1.260940186359464e-04
	3.255556044271827e+00
	0.000000000000000e+00
	-3.610195497288594e-05
	1.290000000000000e-02
	8.200000000000005e-01

 83	8.300000000000005e-01
	1.265427531941604e-04
	3.164031888815623e+00
	0.000000000000000e+00
	-3.727943628608908e-05
	1.290000000000000e-02
	8.300000000000005e-01

 84	8.400000000000005e-01
	1.269688398117439e-04
	3.077232628068622e+00
	0.000000000000000e+00
	-3.846102147701106e-05
	1.290000000000000e-02
	8.400000000000005e-01

 85	8.500000000000005e-01
	1.273739040282346e-04
	2.994816549348088e+00
	0.000000000000000e+00
	-3.964650649004722e-05
	1.290000000000000e-02
	8.500000000000005e-01

 86	8.600000000000005e-01
	1.277594244746781e-04
	2.916472941640031e+00
	0.000000000000000e+00
	-4.083570175221566e-05
	1.290000000000000e-02
	8.600000000000005e-01

 87	8.700000000000006e-01
	1.281267485577990e-04
	2.841918777474440e+00
	0.000000000000000e+00
	-4.202843087431160e-05
	1.290000000000000e-02
	8.700000000000006e-01

 88	8.800000000000006e-01
	1.284771062458964e-04
	2.770895797132906e+00
	0.000000000000000e+00
	-4.322452949000552e-05
	1.290000000000000e-02
	8.800000000000006e-01

 89	8.900000000000006e-01
	1.288116222090211e-04
	2.703167941588643e+00
	0.000000000000000e+00
	-4.442384421624968e-05
	1.290000000000000e-02
	8.900000000000006e-01

 90	9.000000000000006e-01
	1.291313265300358e-04
	2.638519088214591e+00
	0.000000000000000e+00
	-4.562623172055540e-05
	1.290000000000000e-02
	9.000000000000006e-01

 91	9.100000000000006e-01
	1.294371641725205e-04
	2.576751049815770e+00
	0.000000000000000e+00
	-4.683155788260943e-05
	1.290000000000000e-02
	9.100000000000006e-01

 92	9.200000000000006e-01
	1.297300033653902e-04
	2.517681803060283e+00
	0.000000000000000e+00
	-4.803969703932584e-05
	1.290000000000000e-02
	9.200000000000006e-01

 93	9.300000000000006e-01
	1.300106430418421e-04
	2.461143917127086e+00
	0.000000000000000e+00
	-4.925053130381823e-05
	1.290000000000000e-02
	9.300000000000006e-01

 94	9.400000000000006e-01
	1.302798194513195e-04
	2.406983157405642e+00
	0.000000000000000e+00
	-5.046394994999923e-05
	1.290000000000000e-02
	9.400000000000006e-01

 95	9.500000000000006e-01
	1.305382120469195e-04
	2.355057242521444e+00
	0.000000000000000e+00
	-5.167984885553442e-05
	1.290000000000000e-02
	9.500000000000006e-01

 96	9.600000000000006e-01
	1.307864487369072e-04
	2.305234735905013e+00
	0.000000000000000e+00
	-5.289812999679203e-05
	1.290000000000000e-02
	9.600000000000006e-01

 97	9.700000000000006e-01
	1.310251105771197e-04
	2.257394055622083e+00
	0.000000000000000e+00
	-5.411870099019490e-05
	1.290000000000000e-02
	9.700000000000006e-01

 98	9.800000000000006e-01
	1.312547359708985e-04
	2.211422588348616e+00
	0.000000000000000e+00
	-5.534147467505713e-05
	1.290000000000000e-02
	9.800000000000006e-01

 99	9.900000000000007e-01
	1.314758244344965e-04
	2.167215895216774e+00
	0.000000000000000e+00
	-5.656636873357379e-05
	1.290000000000000e-02
	9.900000000000007e-01

 100	1.000000000000001e+00
	1.316888399784208e-04
	2.124676998841611e+00
	0.000000000000000e+00
	-5.779330534413902e-05
	1.290000000000000e-02
	1.000000000000001e+00

 101	1.010000000000001e+00
	1.318942141487257e-04
	2.083715742208771e+00
	0.000000000000000e+00
	-5.902221086460823e-05
	1.290000000000000e-02
	1.010000000000001e+00

 102	1.020000000000001e+00
	1.320923487667347e-04
	2.044248211280761e+00
	0.000000000000000e+00
	-6.025301554251002e-05
	1.290000000000000e-02
	1.020000000000001e+00

 103	1.030000000000001e+00
	1.322836184008491e-04
	2.006196214189883e+00
	0.000000000000000e+00
	-6.148565324954919e-05
	1.290000000000000e-02
	1.030000000000001e+00

 104	1.040000000000001e+00
	1.324683725999811e-04
	1.969486810774250e+00
	0.000000000000000e+00
	-6.272006123803477e-05
	1.290000000000000e-02
	1.040000000000001e+00

 105	1.050000000000001e+00
	1.326469379145434e-04
	1.934051886969094e+00
	0.000000000000000e+00
	-6.395617991713445e-05
	1.290000000000000e-02
	1.050000000000001e+00

 106	1.060000000000001e+00
	1.328196197278067e-04
	1.899827769223979e+00
	0.000000000000000e+00
	-6.519395264707614e-05
	1.290000000000000e-02
	1.060000000000001e+00

 107	1.070000000000001e+00
	1.329867039177359e-04
	1.866754874699590e+00
	0.000000000000000e+00
	-6.643332554962222e-05
	1.290000000000000e-02
	1.070000000000001e+00

 108	1.080000000000001e+00
	1.331484583670453e-04
	1.834777393485928e+00
	0.000000000000000e+00
	-6.767424733332139e-05
	1.290000000000000e-02
	1.080000000000001e+00

 109	1.090000000000001e+00
	1.333051343371666e-04
	1.803842999529815e+00
	0.000000000000000e+00
	-6.891666913218929e-05
	1.290000000000000e-02
	1.090000000000001e+00

 110	1.100000000000001e+00
	1.334569677200048e-04
	1.773902587337554e+00
	0.000000000000000e+00
	-7.016054435662163e-05
	1.290000000000000e-02
	1.100000000000001e+00

 111	1.110000000000001e+00
	1.336041801798161e-04
	1.744910031845016e+00
	0.000000000000000e+00
	-7.140582855545374e-05
	1.290000000000000e-02
	1.110000000000001e+00

 112	1.120000000000001e+00
	1.337469801961376e-04
	1.716821969147761e+00
	0.000000000000000e+00
	-7.265247928819397e-05
	1.290000000000000e-02
	1.120000000000001e+00

 113	1.130000000000001e+00
	1.338855640174916e-04
	1.689597596038315e+00
	0.000000000000000e+00
	-7.390045600655422e-05
	1.290000000000000e-02
	1.130000000000001e+00

 114	1.140000000000001e+00
	1.340201165345366e-04
	1.663198486515855e+00
	0.000000000000000e+00
	-7.514971994449015e-05
	1.290000000000000e-02
	1.140000000000001e+00

 115	1.150000000000001e+00
	1.341508120803947e-04
	1.637588423639557e+00
	0.000000000000000e+00
	-7.640023401602955e-05
	1.290000000000000e-02
	1.150000000000001e+00

 116	1.160000000000001e+00
	1.342778151650476e-04
	1.612733245269796e+00
	0.000000000000000e+00
	-7.765196272025022e-05
	1.290000000000000e-02
	1.160000000000001e+00

 117	1.170000000000001e+00
	1.344012811499941e-04
	1.588600702389691e+00
	0.000000000000000e+00
	-7.890487205281752e-05
	1.290000000000000e-02
	1.170000000000001e+00

 118	1.180000000000001e+00
	1.345213568686776e-04
	1.565160328845668e+00
	0.000000000000000e+00
	-8.015892942355171e-05
	1.290000000000000e-02
	1.180000000000001e+00

 119	1.190000000000001e+00
	1.346381811976662e-04
	1.542383321454107e+00
	0.000000000000000e+00
	-8.141410357954718e-05
	1.290000000000000e-02
	1.190000000000001e+00

 120	1.200000000000001e+00
	1.347518855830074e-04
	1.520242429539198e+00
	0.000000000000000e+00
	-8.267036453339633e-05
	1.290000000000000e-02
	1.200000000000001e+00

 121	1.210000000000001e+00
	1.348625945258082e-04
	1.498711853060678e+00
	0.000000000000000e+00
	-8.392768349613001e-05
	1.290000000000000e-02
	1.210000000000001e+00

 122	1.220000000000001e+00
	1.349704260305884e-04
	1.477767148562220e+00
	0.000000000000000e+00
	-8.518603281450783e-05
	1.290000000000000e-02
	1.220000000000001e+00

 123	1.230000000000001e+00
	1.350754920197039e-04
	1.457385142260962e+00
	0.000000000000000e+00
	-8.644538591232247e-05
	1.290000000000000e-02
	1.230000000000001e+00

 124	1.240000000000001e+00
	1.351778987167493e-04
	1.437543849664259e+00
	0.000000000000000e+00
	-8.770571723542051e-05
	1.290000000000000e-02
	1.240000000000001e+00

 125	1.250000000000001e+00
	1.352777470015917e-04
	1.418222401148520e+00
	0.000000000000000e+00
	-8.896700220016590e-05
	1.290000000000000e-02
	1.250000000000001e+00

 126	1.260000000000001e+00
	1.353751327394303e-04
	1.399400972995007e+00
	0.000000000000000e+00
	-9.022921714508661e-05
	1.290000000000000e-02
	1.260000000000001e+00

 127	1.270000000000001e+00
	1.354701470860559e-04
	1.381060723432497e+00
	0.000000000000000e+00
	-9.149233928547414e-05
	1.290000000000000e-02
	1.270000000000001e+00

 128	1.280000000000001e+00
	1.355628767712805e-04
	1.363183733267533e+00
	0.000000000000000e+00
	-9.275634667072918e-05
	1.290000000000000e-02
	1.280000000000001e+00

 129	1.290000000000001e+00
	1.356534043623002e-04
	1.345752950726452e+00
	0.000000000000000e+00
	-9.402121814425139e-05
	1.290000000000000e-02
	1.290000000000001e+00

 130	1.300000000000001e+00
	1.357418085086505e-04
	1.328752140170021e+00
	0.000000000000000e+00
	-9.528693330569962e-05
	1.290000000000000e-02
	1.300000000000001e+00

 131	1.310000000000001e+00
	1.358281641701838e-04
	1.312165834366545e+00
	0.000000000000000e+00
	-9.655347247545512e-05
	1.290000000000000e-02
	1.310000000000001e+00

 132	1.320000000000001e+00
	1.359125428294601e-04
	1.295979290044214e+00
	0.000000000000000e+00
	-9.782081666113448e-05
	1.290000000000000e-02
	1.320000000000001e+00

 133	1.330000000000001e+00
	1.359950126897194e-04
	1.280178446467366e+00
	0.000000000000000e+00
	-9.908894752601597e-05
	1.290000000000000e-02
	1.330000000000001e+00

 134	1.340000000000001e+00
	1.360756388596021e-04
	1.264749886795116e+00
	0.000000000000000e+00
	-1.003578473592533e-04
	1.290000000000000e-02
	1.340000000000001e+00

 135	1.350000000000001e+00
	1.361544835256190e-04
	1.249680802010017e+00
	0.000000000000000e+00
	-1.016274990477483e-04
	1.290000000000000e-02
	1.350000000000001e+00

 136	1.360000000000001e+00
	1.362316061132686e-04
	1.234958957230228e+00
	0.000000000000000e+00
	-1.028978860495786e-04
	1.290000000000000e-02
	1.360000000000001e+00

 137	1.370000000000001e+00
	1.363070634377168e-04
	1.220572660211610e+00
	0.000000000000000e+00
	-1.041689923688880e-04
	1.290000000000000e-02
	1.370000000000001e+00

 138	1.380000000000001e+00
	1.363809098447630e-04
	1.206510731882635e+00
	0.000000000000000e+00
	-1.054408025321237e-04
	1.290000000000000e-02
	1.380000000000001e+00

 139	1.390000000000001e+00
	1.364531973428299e-04
	1.192762478767229e+00
	0.000000000000000e+00
	-1.067133015655545e-04
	1.290000000000000e-02
	1.390000000000001e+00

 140	1.400000000000001e+00
	1.365239757266476e-04
	1.179317667149466e+00
	0.000000000000000e+00
	-1.079864749739790e-04
	1.290000000000000e-02
	1.400000000000001e+00

 141	1.410000000000001e+00
	1.365932926932002e-04
	1.166166498854323e+00
	0.000000000000000e+00
	-1.092603087205546e-04
	1.290000000000000e-02
	1.410000000000001e+00

 142	1.420000000000001e+00
	1.366611939505096e-04
	1.153299588533053e+00
	0.000000000000000e+00
	-1.105347892076668e-04
	1.290000000000000e-02
	1.420000000000001e+00

 143	1.430000000000001e+00
	1.367277233197572e-04
	1.140707942346352e+00
	0.000000000000000e+00
	-1.118099032587904e-04
	1.290000000000000e-02
	1.430000000000001e+00

 144	1.440000000000001e+00
	1.367929228312311e-04
	1.128382937939329e+00
	0.000000000000000e+00
	-1.130856381012724e-04
	1.290000000000000e-02
	1.440000000000001e+00

 145	1.450000000000001e+00
	1.368568328144791e-04
	1.116316305626856e+00
	0.000000000000000e+00
	-1.143619813499796e-04
	1.290000000000000e-02
	1.450000000000001e+00

 146	1.460000000000001e+00
	1.369194919831377e-04
	1.104500110702608e+00
	0.000000000000000e+00
	-1.156389209917680e-04
	1.290000000000000e-02
	1.460000000000001e+00

 147	1.470000000000001e+00
	1.369809375147355e-04
	1.092926736792820e+00
	0.000000000000000e+00
	-1.169164453707183e-04
	1.290000000000000e-02
	1.470000000000001e+00

 148	1.480000000000001e+00
	1.370412051258500e-04
	1.081588870183025e+00
	0.000000000000000e+00
	-1.181945431740967e-04
	1.290000000000000e-02
	1.480000000000001e+00

 149	1.490000000000001e+00
	1.371003291429018e-04
	1.070479485061449e+00
	0.000000000000000e+00
	-1.194732034189877e-04
	1.290000000000000e-02
	1.490000000000001e+00

 150	1.500000000000001e+00
	1.371583425689238e-04
	1.059591829607399e+00
	0.000000000000000e+00
	-1.207524154395887e-04
	1.290000000000000e-02
	1.500000000000001e+00

 151	1.510000000000001e+00
	1.372152771465106e-04
	1.048919412866741e+00
	0.000000000000000e+00
	-1.220321688750907e-04
	1.290000000000000e-02
	1.510000000000001e+00

 152	1.520000000000001e+00
	1.372711634172247e-04
	1.038455992382472e+00
	0.000000000000000e+00
	-1.233124536581350e-04
	1.290000000000000e-02
	1.520000000000001e+00

 153	1.530000000000001e+00
	1.373260307777189e-04
	1.028195562506300e+00
	0.000000000000000e+00
	-1.245932600038242e-04
	1.290000000000000e-02
	1.530000000000001e+00

 154	1.540000000000001e+00
	1.373799075327131e-04
	1.018132343364405e+00
	0.000000000000000e+00
	-1.258745783992175e-04
	1.290000000000000e-02
	1.540000000000001e+00

 155	1.550000000000001e+00
	1.374328209451101e-04
	1.008260770430260e+00
	0.000000000000000e+00
	-1.271563995933362e-04
	1.290000000000000e-02
	1.550000000000001e+00

 156	1.560000000000001e+00
	1.374847972833674e-04
	9.985754846603838e-01
	0.000000000000000e+00
	-1.284387145875998e-04
	1.290000000000000e-02
	1.560000000000001e+00

 157	1.570000000000001e+00
	1.375358618663017e-04
	9.890713231730685e-01
	0.000000000000000e+00
	-1.297215146267056e-04
	1.290000000000000e-02
	1.570000000000001e+00

 158	1.580000000000001e+00
	1.375860391055546e-04
	9.797433104198283e-01
	0.000000000000000e+00
	-1.310047911899168e-04
	1.290000000000000e-02
	1.580000000000001e+00

 159	1.590000000000001e+00
	1.376353525457455e-04
	9.705866498286327e-01
	0.000000000000000e+00
	-1.322885359827310e-04
	1.290000000000000e-02
	1.590000000000001e+00

 160	1.600000000000001e+00
	1.376838249025734e-04
	9.615967158872898e-01
	0.000000000000000e+00
	-1.335727409289211e-04
	1.290000000000000e-02
	1.600000000000001e+00

 161	1.610000000000001e+00
	1.377314780988912e-04
	9.527690466398302e-01
	0.000000000000000e+00
	-1.348573981629172e-04
	1.290000000000000e-02
	1.610000000000001e+00

 162	1.620000000000001e+00
	1.377783332989554e-04
	9.440993365724161e-01
	0.000000000000000e+00
	-1.361425000225213e-04
	1.290000000000000e-02
	1.620000000000001e+00

 163	1.630000000000001e+00
	1.378244109408912e-04
	9.355834298678412e-01
	0.000000000000000e+00
	-1.374280390419287e-04
	1.290000000000000e-02
	1.630000000000001e+00

 164	1.640000000000001e+00
	1.378697307675315e-04
	9.272173140003905e-01
	0.000000000000000e+00
	-1.387140079450585e-04
	1.290000000000000e-02
	1.640000000000001e+00

 165	1.650000000000001e+00
	1.379143118557014e-04
	9.189971136519889e-01
	0.000000000000000e+00
	-1.400003996391496e-04
	1.290000000000000e-02
	1.650000000000001e+00

 166	1.660000000000001e+00
	1.379581726440109e-04
	9.109190849436435e-01
	0.000000000000000e+00
	-1.412872072086285e-04
	1.290000000000000e-02
	1.660000000000001e+00

 167	1.670000000000001e+00
	1.380013309593266e-04
	9.029796099441317e-01
	0.000000000000000e+00
	-1.425744239092442e-04
	1.290000000000000e-02
	1.670000000000001e+00

 168	1.680000000000001e+00
	1.380438040418876e-04
	8.951751914549250e-01
	0.000000000000000e+00
	-1.438620431624201e-04
	1.290000000000000e-02
	1.680000000000001e+00

 169	1.690000000000001e+00
	1.380856085692200e-04
	8.875024480497277e-01
	0.000000000000000e+00
	-1.451500585498645e-04
	1.290000000000000e-02
	1.690000000000001e+00

 170	1.700000000000001e+00
	1.381267606788993e-04
	8.799581093515493e-01
	0.000000000000000e+00
	-1.464384638083714e-04
	1.290000000000000e-02
	1.700000000000001e+00

 171	1.710000000000001e+00
	1.381672759902158e-04
	8.725390115446131e-01
	0.000000000000000e+00
	-1.477272528248477e-04
	1.290000000000000e-02
	1.710000000000001e+00

 172	1.720000000000001e+00
	1.382071696247951e-04
	8.652420930983132e-01
	0.000000000000000e+00
	-1.490164196315313e-04
	1.290000000000000e-02
	1.720000000000001e+00

 173	1.730000000000001e+00
	1.382464562262709e-04
	8.580643906910558e-01
	0.000000000000000e+00
	-1.503059584014077e-04
	1.290000000000000e-02
	1.730000000000001e+00

 174	1.740000000000001e+00
	1.382851499790035e-04
	8.510030353267898e-01
	0.000000000000000e+00
	-1.515958634437901e-04
	1.290000000000000e-02
	1.740000000000001e+00

 175	1.750000000000001e+00
	1.383232646259508e-04
	8.440552486385536e-01
	0.000000000000000e+00
	-1.528861292000808e-04
	1.290000000000000e-02
	1.750000000000001e+00

 176	1.760000000000001e+00
	1.383608134857066e-04
	8.372183393604101e-01
	0.000000000000000e+00
	-1.541767502396973e-04
	1.290000000000000e-02
	1.760000000000001e+00

 177	1.770000000000001e+00
	1.383978094687509e-04
	8.304896999595672e-01
	0.000000000000000e+00
	-1.554677212561540e-04
	1.290000000000000e-02
	1.770000000000001e+00

 178	1.780000000000001e+00